+ 1 0 2 tcp 40 ------- 1 0.0 3.0 0 0
- 1 0 2 tcp 40 ------- 1 0.0 3.0 0 0
r 1.01016 0 2 tcp 40 ------- 1 0.0 3.0 0 0
+ 1.01016 2 3 tcp 40 ------- 1 0.0 3.0 0 0
- 1.01016 2 3 tcp 40 ------- 1 0.0 3.0 0 0
r 1.030348 2 3 tcp 40 ------- 1 0.0 3.0 0 0
+ 1.030348 3 2 ack 40 ------- 1 3.0 0.0 0 1
- 1.030348 3 2 ack 40 ------- 1 3.0 0.0 0 1
r 1.050536 3 2 ack 40 ------- 1 3.0 0.0 0 1
+ 1.050536 2 0 ack 40 ------- 1 3.0 0.0 0 1
- 1.050536 2 0 ack 40 ------- 1 3.0 0.0 0 1
r 1.060696 2 0 ack 40 ------- 1 3.0 0.0 0 1
+ 1.060696 0 2 tcp 1040 ------- 1 0.0 3.0 1 2
- 1.060696 0 2 tcp 1040 ------- 1 0.0 3.0 1 2
+ 1.060696 0 2 tcp 1040 ------- 1 0.0 3.0 2 3
- 1.064856 0 2 tcp 1040 ------- 1 0.0 3.0 2 3
r 1.074856 0 2 tcp 1040 ------- 1 0.0 3.0 1 2
+ 1.074856 2 3 tcp 1040 ------- 1 0.0 3.0 1 2
- 1.074856 2 3 tcp 1040 ------- 1 0.0 3.0 1 2
r 1.079016 0 2 tcp 1040 ------- 1 0.0 3.0 2 3
+ 1.079016 2 3 tcp 1040 ------- 1 0.0 3.0 2 3
- 1.079751 2 3 tcp 1040 ------- 1 0.0 3.0 2 3
r 1.099751 2 3 tcp 1040 ------- 1 0.0 3.0 1 2
+ 1.099751 3 2 ack 40 ------- 1 3.0 0.0 1 4
- 1.099751 3 2 ack 40 ------- 1 3.0 0.0 1 4
r 1.104645 2 3 tcp 1040 ------- 1 0.0 3.0 2 3
+ 1.104645 3 2 ack 40 ------- 1 3.0 0.0 2 5
- 1.104645 3 2 ack 40 ------- 1 3.0 0.0 2 5
r 1.119939 3 2 ack 40 ------- 1 3.0 0.0 1 4
+ 1.119939 2 0 ack 40 ------- 1 3.0 0.0 1 4
- 1.119939 2 0 ack 40 ------- 1 3.0 0.0 1 4
r 1.124833 3 2 ack 40 ------- 1 3.0 0.0 2 5
+ 1.124833 2 0 ack 40 ------- 1 3.0 0.0 2 5
- 1.124833 2 0 ack 40 ------- 1 3.0 0.0 2 5
r 1.130099 2 0 ack 40 ------- 1 3.0 0.0 1 4
+ 1.130099 0 2 tcp 1040 ------- 1 0.0 3.0 3 6
- 1.130099 0 2 tcp 1040 ------- 1 0.0 3.0 3 6
+ 1.130099 0 2 tcp 1040 ------- 1 0.0 3.0 4 7
- 1.134259 0 2 tcp 1040 ------- 1 0.0 3.0 4 7
r 1.134993 2 0 ack 40 ------- 1 3.0 0.0 2 5
+ 1.134993 0 2 tcp 1040 ------- 1 0.0 3.0 5 8
+ 1.134993 0 2 tcp 1040 ------- 1 0.0 3.0 6 9
- 1.138419 0 2 tcp 1040 ------- 1 0.0 3.0 5 8
- 1.142579 0 2 tcp 1040 ------- 1 0.0 3.0 6 9
r 1.144259 0 2 tcp 1040 ------- 1 0.0 3.0 3 6
+ 1.144259 2 3 tcp 1040 ------- 1 0.0 3.0 3 6
- 1.144259 2 3 tcp 1040 ------- 1 0.0 3.0 3 6
r 1.148419 0 2 tcp 1040 ------- 1 0.0 3.0 4 7
+ 1.148419 2 3 tcp 1040 ------- 1 0.0 3.0 4 7
- 1.149153 2 3 tcp 1040 ------- 1 0.0 3.0 4 7
r 1.152579 0 2 tcp 1040 ------- 1 0.0 3.0 5 8
+ 1.152579 2 3 tcp 1040 ------- 1 0.0 3.0 5 8
- 1.154047 2 3 tcp 1040 ------- 1 0.0 3.0 5 8
r 1.156739 0 2 tcp 1040 ------- 1 0.0 3.0 6 9
+ 1.156739 2 3 tcp 1040 ------- 1 0.0 3.0 6 9
- 1.158941 2 3 tcp 1040 ------- 1 0.0 3.0 6 9
r 1.169153 2 3 tcp 1040 ------- 1 0.0 3.0 3 6
+ 1.169153 3 2 ack 40 ------- 1 3.0 0.0 3 10
- 1.169153 3 2 ack 40 ------- 1 3.0 0.0 3 10
r 1.174047 2 3 tcp 1040 ------- 1 0.0 3.0 4 7
+ 1.174047 3 2 ack 40 ------- 1 3.0 0.0 4 11
- 1.174047 3 2 ack 40 ------- 1 3.0 0.0 4 11
r 1.178941 2 3 tcp 1040 ------- 1 0.0 3.0 5 8
+ 1.178941 3 2 ack 40 ------- 1 3.0 0.0 5 12
- 1.178941 3 2 ack 40 ------- 1 3.0 0.0 5 12
r 1.183835 2 3 tcp 1040 ------- 1 0.0 3.0 6 9
+ 1.183835 3 2 ack 40 ------- 1 3.0 0.0 6 13
- 1.183835 3 2 ack 40 ------- 1 3.0 0.0 6 13
r 1.189341 3 2 ack 40 ------- 1 3.0 0.0 3 10
+ 1.189341 2 0 ack 40 ------- 1 3.0 0.0 3 10
- 1.189341 2 0 ack 40 ------- 1 3.0 0.0 3 10
r 1.194235 3 2 ack 40 ------- 1 3.0 0.0 4 11
+ 1.194235 2 0 ack 40 ------- 1 3.0 0.0 4 11
- 1.194235 2 0 ack 40 ------- 1 3.0 0.0 4 11
r 1.199129 3 2 ack 40 ------- 1 3.0 0.0 5 12
+ 1.199129 2 0 ack 40 ------- 1 3.0 0.0 5 12
- 1.199129 2 0 ack 40 ------- 1 3.0 0.0 5 12
r 1.199501 2 0 ack 40 ------- 1 3.0 0.0 3 10
+ 1.199501 0 2 tcp 1040 ------- 1 0.0 3.0 7 14
- 1.199501 0 2 tcp 1040 ------- 1 0.0 3.0 7 14
+ 1.199501 0 2 tcp 1040 ------- 1 0.0 3.0 8 15
- 1.203661 0 2 tcp 1040 ------- 1 0.0 3.0 8 15
r 1.204024 3 2 ack 40 ------- 1 3.0 0.0 6 13
+ 1.204024 2 0 ack 40 ------- 1 3.0 0.0 6 13
- 1.204024 2 0 ack 40 ------- 1 3.0 0.0 6 13
r 1.204395 2 0 ack 40 ------- 1 3.0 0.0 4 11
+ 1.204395 0 2 tcp 1040 ------- 1 0.0 3.0 9 16
+ 1.204395 0 2 tcp 1040 ------- 1 0.0 3.0 10 17
- 1.207821 0 2 tcp 1040 ------- 1 0.0 3.0 9 16
r 1.209289 2 0 ack 40 ------- 1 3.0 0.0 5 12
+ 1.209289 0 2 tcp 1040 ------- 1 0.0 3.0 11 18
+ 1.209289 0 2 tcp 1040 ------- 1 0.0 3.0 12 19
- 1.211981 0 2 tcp 1040 ------- 1 0.0 3.0 10 17
r 1.213661 0 2 tcp 1040 ------- 1 0.0 3.0 7 14
+ 1.213661 2 3 tcp 1040 ------- 1 0.0 3.0 7 14
- 1.213661 2 3 tcp 1040 ------- 1 0.0 3.0 7 14
r 1.214184 2 0 ack 40 ------- 1 3.0 0.0 6 13
+ 1.214184 0 2 tcp 1040 ------- 1 0.0 3.0 13 20
+ 1.214184 0 2 tcp 1040 ------- 1 0.0 3.0 14 21
- 1.216141 0 2 tcp 1040 ------- 1 0.0 3.0 11 18
r 1.217821 0 2 tcp 1040 ------- 1 0.0 3.0 8 15
+ 1.217821 2 3 tcp 1040 ------- 1 0.0 3.0 8 15
- 1.218555 2 3 tcp 1040 ------- 1 0.0 3.0 8 15
- 1.220301 0 2 tcp 1040 ------- 1 0.0 3.0 12 19
r 1.221981 0 2 tcp 1040 ------- 1 0.0 3.0 9 16
+ 1.221981 2 3 tcp 1040 ------- 1 0.0 3.0 9 16
- 1.223449 2 3 tcp 1040 ------- 1 0.0 3.0 9 16
- 1.224461 0 2 tcp 1040 ------- 1 0.0 3.0 13 20
r 1.226141 0 2 tcp 1040 ------- 1 0.0 3.0 10 17
+ 1.226141 2 3 tcp 1040 ------- 1 0.0 3.0 10 17
- 1.228344 2 3 tcp 1040 ------- 1 0.0 3.0 10 17
- 1.228621 0 2 tcp 1040 ------- 1 0.0 3.0 14 21
r 1.230301 0 2 tcp 1040 ------- 1 0.0 3.0 11 18
+ 1.230301 2 3 tcp 1040 ------- 1 0.0 3.0 11 18
- 1.233238 2 3 tcp 1040 ------- 1 0.0 3.0 11 18
r 1.234461 0 2 tcp 1040 ------- 1 0.0 3.0 12 19
+ 1.234461 2 3 tcp 1040 ------- 1 0.0 3.0 12 19
- 1.238132 2 3 tcp 1040 ------- 1 0.0 3.0 12 19
r 1.238555 2 3 tcp 1040 ------- 1 0.0 3.0 7 14
+ 1.238555 3 2 ack 40 ------- 1 3.0 0.0 7 22
- 1.238555 3 2 ack 40 ------- 1 3.0 0.0 7 22
r 1.238621 0 2 tcp 1040 ------- 1 0.0 3.0 13 20
+ 1.238621 2 3 tcp 1040 ------- 1 0.0 3.0 13 20
r 1.242781 0 2 tcp 1040 ------- 1 0.0 3.0 14 21
+ 1.242781 2 3 tcp 1040 ------- 1 0.0 3.0 14 21
- 1.243026 2 3 tcp 1040 ------- 1 0.0 3.0 13 20
r 1.243449 2 3 tcp 1040 ------- 1 0.0 3.0 8 15
+ 1.243449 3 2 ack 40 ------- 1 3.0 0.0 8 23
- 1.243449 3 2 ack 40 ------- 1 3.0 0.0 8 23
- 1.24792 2 3 tcp 1040 ------- 1 0.0 3.0 14 21
r 1.248344 2 3 tcp 1040 ------- 1 0.0 3.0 9 16
+ 1.248344 3 2 ack 40 ------- 1 3.0 0.0 9 24
- 1.248344 3 2 ack 40 ------- 1 3.0 0.0 9 24
r 1.253238 2 3 tcp 1040 ------- 1 0.0 3.0 10 17
+ 1.253238 3 2 ack 40 ------- 1 3.0 0.0 10 25
- 1.253238 3 2 ack 40 ------- 1 3.0 0.0 10 25
r 1.258132 2 3 tcp 1040 ------- 1 0.0 3.0 11 18
+ 1.258132 3 2 ack 40 ------- 1 3.0 0.0 11 26
- 1.258132 3 2 ack 40 ------- 1 3.0 0.0 11 26
r 1.258744 3 2 ack 40 ------- 1 3.0 0.0 7 22
+ 1.258744 2 0 ack 40 ------- 1 3.0 0.0 7 22
- 1.258744 2 0 ack 40 ------- 1 3.0 0.0 7 22
r 1.263026 2 3 tcp 1040 ------- 1 0.0 3.0 12 19
+ 1.263026 3 2 ack 40 ------- 1 3.0 0.0 12 27
- 1.263026 3 2 ack 40 ------- 1 3.0 0.0 12 27
r 1.263638 3 2 ack 40 ------- 1 3.0 0.0 8 23
+ 1.263638 2 0 ack 40 ------- 1 3.0 0.0 8 23
- 1.263638 2 0 ack 40 ------- 1 3.0 0.0 8 23
r 1.26792 2 3 tcp 1040 ------- 1 0.0 3.0 13 20
+ 1.26792 3 2 ack 40 ------- 1 3.0 0.0 13 28
- 1.26792 3 2 ack 40 ------- 1 3.0 0.0 13 28
r 1.268532 3 2 ack 40 ------- 1 3.0 0.0 9 24
+ 1.268532 2 0 ack 40 ------- 1 3.0 0.0 9 24
- 1.268532 2 0 ack 40 ------- 1 3.0 0.0 9 24
r 1.268904 2 0 ack 40 ------- 1 3.0 0.0 7 22
+ 1.268904 0 2 tcp 1040 ------- 1 0.0 3.0 15 29
- 1.268904 0 2 tcp 1040 ------- 1 0.0 3.0 15 29
+ 1.268904 0 2 tcp 1040 ------- 1 0.0 3.0 16 30
r 1.272814 2 3 tcp 1040 ------- 1 0.0 3.0 14 21
+ 1.272814 3 2 ack 40 ------- 1 3.0 0.0 14 31
- 1.272814 3 2 ack 40 ------- 1 3.0 0.0 14 31
- 1.273064 0 2 tcp 1040 ------- 1 0.0 3.0 16 30
r 1.273426 3 2 ack 40 ------- 1 3.0 0.0 10 25
+ 1.273426 2 0 ack 40 ------- 1 3.0 0.0 10 25
- 1.273426 2 0 ack 40 ------- 1 3.0 0.0 10 25
r 1.273798 2 0 ack 40 ------- 1 3.0 0.0 8 23
+ 1.273798 0 2 tcp 1040 ------- 1 0.0 3.0 17 32
+ 1.273798 0 2 tcp 1040 ------- 1 0.0 3.0 18 33
- 1.277224 0 2 tcp 1040 ------- 1 0.0 3.0 17 32
r 1.27832 3 2 ack 40 ------- 1 3.0 0.0 11 26
+ 1.27832 2 0 ack 40 ------- 1 3.0 0.0 11 26
- 1.27832 2 0 ack 40 ------- 1 3.0 0.0 11 26
r 1.278692 2 0 ack 40 ------- 1 3.0 0.0 9 24
+ 1.278692 0 2 tcp 1040 ------- 1 0.0 3.0 19 34
+ 1.278692 0 2 tcp 1040 ------- 1 0.0 3.0 20 35
- 1.281384 0 2 tcp 1040 ------- 1 0.0 3.0 18 33
r 1.283064 0 2 tcp 1040 ------- 1 0.0 3.0 15 29
+ 1.283064 2 3 tcp 1040 ------- 1 0.0 3.0 15 29
- 1.283064 2 3 tcp 1040 ------- 1 0.0 3.0 15 29
r 1.283214 3 2 ack 40 ------- 1 3.0 0.0 12 27
+ 1.283214 2 0 ack 40 ------- 1 3.0 0.0 12 27
- 1.283214 2 0 ack 40 ------- 1 3.0 0.0 12 27
r 1.283586 2 0 ack 40 ------- 1 3.0 0.0 10 25
+ 1.283586 0 2 tcp 1040 ------- 1 0.0 3.0 21 36
+ 1.283586 0 2 tcp 1040 ------- 1 0.0 3.0 22 37
- 1.285544 0 2 tcp 1040 ------- 1 0.0 3.0 19 34
r 1.287224 0 2 tcp 1040 ------- 1 0.0 3.0 16 30
+ 1.287224 2 3 tcp 1040 ------- 1 0.0 3.0 16 30
- 1.287958 2 3 tcp 1040 ------- 1 0.0 3.0 16 30
r 1.288108 3 2 ack 40 ------- 1 3.0 0.0 13 28
+ 1.288108 2 0 ack 40 ------- 1 3.0 0.0 13 28
- 1.288108 2 0 ack 40 ------- 1 3.0 0.0 13 28
r 1.28848 2 0 ack 40 ------- 1 3.0 0.0 11 26
+ 1.28848 0 2 tcp 1040 ------- 1 0.0 3.0 23 38
+ 1.28848 0 2 tcp 1040 ------- 1 0.0 3.0 24 39
- 1.289704 0 2 tcp 1040 ------- 1 0.0 3.0 20 35
r 1.291384 0 2 tcp 1040 ------- 1 0.0 3.0 17 32
+ 1.291384 2 3 tcp 1040 ------- 1 0.0 3.0 17 32
- 1.292852 2 3 tcp 1040 ------- 1 0.0 3.0 17 32
r 1.293002 3 2 ack 40 ------- 1 3.0 0.0 14 31
+ 1.293002 2 0 ack 40 ------- 1 3.0 0.0 14 31
- 1.293002 2 0 ack 40 ------- 1 3.0 0.0 14 31
r 1.293374 2 0 ack 40 ------- 1 3.0 0.0 12 27
+ 1.293374 0 2 tcp 1040 ------- 1 0.0 3.0 25 40
+ 1.293374 0 2 tcp 1040 ------- 1 0.0 3.0 26 41
- 1.293864 0 2 tcp 1040 ------- 1 0.0 3.0 21 36
r 1.295544 0 2 tcp 1040 ------- 1 0.0 3.0 18 33
+ 1.295544 2 3 tcp 1040 ------- 1 0.0 3.0 18 33
- 1.297746 2 3 tcp 1040 ------- 1 0.0 3.0 18 33
- 1.298024 0 2 tcp 1040 ------- 1 0.0 3.0 22 37
r 1.298268 2 0 ack 40 ------- 1 3.0 0.0 13 28
+ 1.298268 0 2 tcp 1040 ------- 1 0.0 3.0 27 42
+ 1.298268 0 2 tcp 1040 ------- 1 0.0 3.0 28 43
r 1.299704 0 2 tcp 1040 ------- 1 0.0 3.0 19 34
+ 1.299704 2 3 tcp 1040 ------- 1 0.0 3.0 19 34
- 1.302184 0 2 tcp 1040 ------- 1 0.0 3.0 23 38
- 1.30264 2 3 tcp 1040 ------- 1 0.0 3.0 19 34
r 1.303162 2 0 ack 40 ------- 1 3.0 0.0 14 31
+ 1.303162 0 2 tcp 1040 ------- 1 0.0 3.0 29 44
+ 1.303162 0 2 tcp 1040 ------- 1 0.0 3.0 30 45
r 1.303864 0 2 tcp 1040 ------- 1 0.0 3.0 20 35
+ 1.303864 2 3 tcp 1040 ------- 1 0.0 3.0 20 35
- 1.306344 0 2 tcp 1040 ------- 1 0.0 3.0 24 39
- 1.307534 2 3 tcp 1040 ------- 1 0.0 3.0 20 35
r 1.307958 2 3 tcp 1040 ------- 1 0.0 3.0 15 29
+ 1.307958 3 2 ack 40 ------- 1 3.0 0.0 15 46
- 1.307958 3 2 ack 40 ------- 1 3.0 0.0 15 46
r 1.308024 0 2 tcp 1040 ------- 1 0.0 3.0 21 36
+ 1.308024 2 3 tcp 1040 ------- 1 0.0 3.0 21 36
- 1.310504 0 2 tcp 1040 ------- 1 0.0 3.0 25 40
r 1.312184 0 2 tcp 1040 ------- 1 0.0 3.0 22 37
+ 1.312184 2 3 tcp 1040 ------- 1 0.0 3.0 22 37
- 1.312428 2 3 tcp 1040 ------- 1 0.0 3.0 21 36
r 1.312852 2 3 tcp 1040 ------- 1 0.0 3.0 16 30
+ 1.312852 3 2 ack 40 ------- 1 3.0 0.0 16 47
- 1.312852 3 2 ack 40 ------- 1 3.0 0.0 16 47
- 1.314664 0 2 tcp 1040 ------- 1 0.0 3.0 26 41
r 1.316344 0 2 tcp 1040 ------- 1 0.0 3.0 23 38
+ 1.316344 2 3 tcp 1040 ------- 1 0.0 3.0 23 38
- 1.317322 2 3 tcp 1040 ------- 1 0.0 3.0 22 37
r 1.317746 2 3 tcp 1040 ------- 1 0.0 3.0 17 32
+ 1.317746 3 2 ack 40 ------- 1 3.0 0.0 17 48
- 1.317746 3 2 ack 40 ------- 1 3.0 0.0 17 48
- 1.318824 0 2 tcp 1040 ------- 1 0.0 3.0 27 42
r 1.320504 0 2 tcp 1040 ------- 1 0.0 3.0 24 39
+ 1.320504 2 3 tcp 1040 ------- 1 0.0 3.0 24 39
- 1.322216 2 3 tcp 1040 ------- 1 0.0 3.0 23 38
r 1.32264 2 3 tcp 1040 ------- 1 0.0 3.0 18 33
+ 1.32264 3 2 ack 40 ------- 1 3.0 0.0 18 49
- 1.32264 3 2 ack 40 ------- 1 3.0 0.0 18 49
- 1.322984 0 2 tcp 1040 ------- 1 0.0 3.0 28 43
r 1.324664 0 2 tcp 1040 ------- 1 0.0 3.0 25 40
+ 1.324664 2 3 tcp 1040 ------- 1 0.0 3.0 25 40
- 1.327111 2 3 tcp 1040 ------- 1 0.0 3.0 24 39
- 1.327144 0 2 tcp 1040 ------- 1 0.0 3.0 29 44
r 1.327534 2 3 tcp 1040 ------- 1 0.0 3.0 19 34
+ 1.327534 3 2 ack 40 ------- 1 3.0 0.0 19 50
- 1.327534 3 2 ack 40 ------- 1 3.0 0.0 19 50
r 1.328146 3 2 ack 40 ------- 1 3.0 0.0 15 46
+ 1.328146 2 0 ack 40 ------- 1 3.0 0.0 15 46
- 1.328146 2 0 ack 40 ------- 1 3.0 0.0 15 46
r 1.328824 0 2 tcp 1040 ------- 1 0.0 3.0 26 41
+ 1.328824 2 3 tcp 1040 ------- 1 0.0 3.0 26 41
- 1.331304 0 2 tcp 1040 ------- 1 0.0 3.0 30 45
- 1.332005 2 3 tcp 1040 ------- 1 0.0 3.0 25 40
r 1.332428 2 3 tcp 1040 ------- 1 0.0 3.0 20 35
+ 1.332428 3 2 ack 40 ------- 1 3.0 0.0 20 51
- 1.332428 3 2 ack 40 ------- 1 3.0 0.0 20 51
r 1.332984 0 2 tcp 1040 ------- 1 0.0 3.0 27 42
+ 1.332984 2 3 tcp 1040 ------- 1 0.0 3.0 27 42
r 1.33304 3 2 ack 40 ------- 1 3.0 0.0 16 47
+ 1.33304 2 0 ack 40 ------- 1 3.0 0.0 16 47
- 1.33304 2 0 ack 40 ------- 1 3.0 0.0 16 47
- 1.336899 2 3 tcp 1040 ------- 1 0.0 3.0 26 41
r 1.337144 0 2 tcp 1040 ------- 1 0.0 3.0 28 43
+ 1.337144 2 3 tcp 1040 ------- 1 0.0 3.0 28 43
r 1.337322 2 3 tcp 1040 ------- 1 0.0 3.0 21 36
+ 1.337322 3 2 ack 40 ------- 1 3.0 0.0 21 52
- 1.337322 3 2 ack 40 ------- 1 3.0 0.0 21 52
r 1.337934 3 2 ack 40 ------- 1 3.0 0.0 17 48
+ 1.337934 2 0 ack 40 ------- 1 3.0 0.0 17 48
- 1.337934 2 0 ack 40 ------- 1 3.0 0.0 17 48
r 1.338306 2 0 ack 40 ------- 1 3.0 0.0 15 46
+ 1.338306 0 2 tcp 1040 ------- 1 0.0 3.0 31 53
- 1.338306 0 2 tcp 1040 ------- 1 0.0 3.0 31 53
+ 1.338306 0 2 tcp 1040 ------- 1 0.0 3.0 32 54
r 1.341304 0 2 tcp 1040 ------- 1 0.0 3.0 29 44
+ 1.341304 2 3 tcp 1040 ------- 1 0.0 3.0 29 44
- 1.341793 2 3 tcp 1040 ------- 1 0.0 3.0 27 42
r 1.342216 2 3 tcp 1040 ------- 1 0.0 3.0 22 37
+ 1.342216 3 2 ack 40 ------- 1 3.0 0.0 22 55
- 1.342216 3 2 ack 40 ------- 1 3.0 0.0 22 55
- 1.342466 0 2 tcp 1040 ------- 1 0.0 3.0 32 54
r 1.342828 3 2 ack 40 ------- 1 3.0 0.0 18 49
+ 1.342828 2 0 ack 40 ------- 1 3.0 0.0 18 49
- 1.342828 2 0 ack 40 ------- 1 3.0 0.0 18 49
r 1.3432 2 0 ack 40 ------- 1 3.0 0.0 16 47
+ 1.3432 0 2 tcp 1040 ------- 1 0.0 3.0 33 56
+ 1.3432 0 2 tcp 1040 ------- 1 0.0 3.0 34 57
r 1.345464 0 2 tcp 1040 ------- 1 0.0 3.0 30 45
+ 1.345464 2 3 tcp 1040 ------- 1 0.0 3.0 30 45
- 1.346626 0 2 tcp 1040 ------- 1 0.0 3.0 33 56
- 1.346687 2 3 tcp 1040 ------- 1 0.0 3.0 28 43
r 1.347111 2 3 tcp 1040 ------- 1 0.0 3.0 23 38
+ 1.347111 3 2 ack 40 ------- 1 3.0 0.0 23 58
- 1.347111 3 2 ack 40 ------- 1 3.0 0.0 23 58
r 1.347722 3 2 ack 40 ------- 1 3.0 0.0 19 50
+ 1.347722 2 0 ack 40 ------- 1 3.0 0.0 19 50
- 1.347722 2 0 ack 40 ------- 1 3.0 0.0 19 50
r 1.348094 2 0 ack 40 ------- 1 3.0 0.0 17 48
+ 1.348094 0 2 tcp 1040 ------- 1 0.0 3.0 35 59
+ 1.348094 0 2 tcp 1040 ------- 1 0.0 3.0 36 60
- 1.350786 0 2 tcp 1040 ------- 1 0.0 3.0 34 57
- 1.351581 2 3 tcp 1040 ------- 1 0.0 3.0 29 44
r 1.352005 2 3 tcp 1040 ------- 1 0.0 3.0 24 39
+ 1.352005 3 2 ack 40 ------- 1 3.0 0.0 24 61
- 1.352005 3 2 ack 40 ------- 1 3.0 0.0 24 61
r 1.352466 0 2 tcp 1040 ------- 1 0.0 3.0 31 53
+ 1.352466 2 3 tcp 1040 ------- 1 0.0 3.0 31 53
r 1.352616 3 2 ack 40 ------- 1 3.0 0.0 20 51
+ 1.352616 2 0 ack 40 ------- 1 3.0 0.0 20 51
- 1.352616 2 0 ack 40 ------- 1 3.0 0.0 20 51
r 1.352988 2 0 ack 40 ------- 1 3.0 0.0 18 49
+ 1.352988 0 2 tcp 1040 ------- 1 0.0 3.0 37 62
+ 1.352988 0 2 tcp 1040 ------- 1 0.0 3.0 38 63
- 1.354946 0 2 tcp 1040 ------- 1 0.0 3.0 35 59
- 1.356475 2 3 tcp 1040 ------- 1 0.0 3.0 30 45
r 1.356626 0 2 tcp 1040 ------- 1 0.0 3.0 32 54
+ 1.356626 2 3 tcp 1040 ------- 1 0.0 3.0 32 54
r 1.356899 2 3 tcp 1040 ------- 1 0.0 3.0 25 40
+ 1.356899 3 2 ack 40 ------- 1 3.0 0.0 25 64
- 1.356899 3 2 ack 40 ------- 1 3.0 0.0 25 64
r 1.357511 3 2 ack 40 ------- 1 3.0 0.0 21 52
+ 1.357511 2 0 ack 40 ------- 1 3.0 0.0 21 52
- 1.357511 2 0 ack 40 ------- 1 3.0 0.0 21 52
r 1.357882 2 0 ack 40 ------- 1 3.0 0.0 19 50
+ 1.357882 0 2 tcp 1040 ------- 1 0.0 3.0 39 65
- 1.359106 0 2 tcp 1040 ------- 1 0.0 3.0 36 60
r 1.360786 0 2 tcp 1040 ------- 1 0.0 3.0 33 56
+ 1.360786 2 3 tcp 1040 ------- 1 0.0 3.0 33 56
- 1.361369 2 3 tcp 1040 ------- 1 0.0 3.0 31 53
r 1.361793 2 3 tcp 1040 ------- 1 0.0 3.0 26 41
+ 1.361793 3 2 ack 40 ------- 1 3.0 0.0 26 66
- 1.361793 3 2 ack 40 ------- 1 3.0 0.0 26 66
r 1.362405 3 2 ack 40 ------- 1 3.0 0.0 22 55
+ 1.362405 2 0 ack 40 ------- 1 3.0 0.0 22 55
- 1.362405 2 0 ack 40 ------- 1 3.0 0.0 22 55
r 1.362776 2 0 ack 40 ------- 1 3.0 0.0 20 51
+ 1.362776 0 2 tcp 1040 ------- 1 0.0 3.0 40 67
- 1.363266 0 2 tcp 1040 ------- 1 0.0 3.0 37 62
r 1.364946 0 2 tcp 1040 ------- 1 0.0 3.0 34 57
+ 1.364946 2 3 tcp 1040 ------- 1 0.0 3.0 34 57
- 1.366264 2 3 tcp 1040 ------- 1 0.0 3.0 32 54
r 1.366687 2 3 tcp 1040 ------- 1 0.0 3.0 27 42
+ 1.366687 3 2 ack 40 ------- 1 3.0 0.0 27 68
- 1.366687 3 2 ack 40 ------- 1 3.0 0.0 27 68
r 1.367299 3 2 ack 40 ------- 1 3.0 0.0 23 58
+ 1.367299 2 0 ack 40 ------- 1 3.0 0.0 23 58
- 1.367299 2 0 ack 40 ------- 1 3.0 0.0 23 58
- 1.367426 0 2 tcp 1040 ------- 1 0.0 3.0 38 63
r 1.367671 2 0 ack 40 ------- 1 3.0 0.0 21 52
+ 1.367671 0 2 tcp 1040 ------- 1 0.0 3.0 41 69
r 1.369106 0 2 tcp 1040 ------- 1 0.0 3.0 35 59
+ 1.369106 2 3 tcp 1040 ------- 1 0.0 3.0 35 59
- 1.371158 2 3 tcp 1040 ------- 1 0.0 3.0 33 56
r 1.371581 2 3 tcp 1040 ------- 1 0.0 3.0 28 43
+ 1.371581 3 2 ack 40 ------- 1 3.0 0.0 28 70
- 1.371581 3 2 ack 40 ------- 1 3.0 0.0 28 70
- 1.371586 0 2 tcp 1040 ------- 1 0.0 3.0 39 65
r 1.372193 3 2 ack 40 ------- 1 3.0 0.0 24 61
+ 1.372193 2 0 ack 40 ------- 1 3.0 0.0 24 61
- 1.372193 2 0 ack 40 ------- 1 3.0 0.0 24 61
r 1.372565 2 0 ack 40 ------- 1 3.0 0.0 22 55
+ 1.372565 0 2 tcp 1040 ------- 1 0.0 3.0 42 71
r 1.373266 0 2 tcp 1040 ------- 1 0.0 3.0 36 60
+ 1.373266 2 3 tcp 1040 ------- 1 0.0 3.0 36 60
- 1.375746 0 2 tcp 1040 ------- 1 0.0 3.0 40 67
- 1.376052 2 3 tcp 1040 ------- 1 0.0 3.0 34 57
r 1.376475 2 3 tcp 1040 ------- 1 0.0 3.0 29 44
+ 1.376475 3 2 ack 40 ------- 1 3.0 0.0 29 72
- 1.376475 3 2 ack 40 ------- 1 3.0 0.0 29 72
r 1.377087 3 2 ack 40 ------- 1 3.0 0.0 25 64
+ 1.377087 2 0 ack 40 ------- 1 3.0 0.0 25 64
- 1.377087 2 0 ack 40 ------- 1 3.0 0.0 25 64
r 1.377426 0 2 tcp 1040 ------- 1 0.0 3.0 37 62
+ 1.377426 2 3 tcp 1040 ------- 1 0.0 3.0 37 62
r 1.377459 2 0 ack 40 ------- 1 3.0 0.0 23 58
+ 1.377459 0 2 tcp 1040 ------- 1 0.0 3.0 43 73
- 1.379906 0 2 tcp 1040 ------- 1 0.0 3.0 41 69
- 1.380946 2 3 tcp 1040 ------- 1 0.0 3.0 35 59
r 1.381369 2 3 tcp 1040 ------- 1 0.0 3.0 30 45
+ 1.381369 3 2 ack 40 ------- 1 3.0 0.0 30 74
- 1.381369 3 2 ack 40 ------- 1 3.0 0.0 30 74
r 1.381586 0 2 tcp 1040 ------- 1 0.0 3.0 38 63
+ 1.381586 2 3 tcp 1040 ------- 1 0.0 3.0 38 63
r 1.381981 3 2 ack 40 ------- 1 3.0 0.0 26 66
+ 1.381981 2 0 ack 40 ------- 1 3.0 0.0 26 66
- 1.381981 2 0 ack 40 ------- 1 3.0 0.0 26 66
r 1.382353 2 0 ack 40 ------- 1 3.0 0.0 24 61
+ 1.382353 0 2 tcp 1040 ------- 1 0.0 3.0 44 75
- 1.384066 0 2 tcp 1040 ------- 1 0.0 3.0 42 71
r 1.385746 0 2 tcp 1040 ------- 1 0.0 3.0 39 65
+ 1.385746 2 3 tcp 1040 ------- 1 0.0 3.0 39 65
- 1.38584 2 3 tcp 1040 ------- 1 0.0 3.0 36 60
r 1.386264 2 3 tcp 1040 ------- 1 0.0 3.0 31 53
+ 1.386264 3 2 ack 40 ------- 1 3.0 0.0 31 76
- 1.386264 3 2 ack 40 ------- 1 3.0 0.0 31 76
r 1.386875 3 2 ack 40 ------- 1 3.0 0.0 27 68
+ 1.386875 2 0 ack 40 ------- 1 3.0 0.0 27 68
- 1.386875 2 0 ack 40 ------- 1 3.0 0.0 27 68
r 1.387247 2 0 ack 40 ------- 1 3.0 0.0 25 64
+ 1.387247 0 2 tcp 1040 ------- 1 0.0 3.0 45 77
- 1.388226 0 2 tcp 1040 ------- 1 0.0 3.0 43 73
r 1.389906 0 2 tcp 1040 ------- 1 0.0 3.0 40 67
+ 1.389906 2 3 tcp 1040 ------- 1 0.0 3.0 40 67
- 1.390734 2 3 tcp 1040 ------- 1 0.0 3.0 37 62
r 1.391158 2 3 tcp 1040 ------- 1 0.0 3.0 32 54
+ 1.391158 3 2 ack 40 ------- 1 3.0 0.0 32 78
- 1.391158 3 2 ack 40 ------- 1 3.0 0.0 32 78
r 1.391769 3 2 ack 40 ------- 1 3.0 0.0 28 70
+ 1.391769 2 0 ack 40 ------- 1 3.0 0.0 28 70
- 1.391769 2 0 ack 40 ------- 1 3.0 0.0 28 70
r 1.392141 2 0 ack 40 ------- 1 3.0 0.0 26 66
+ 1.392141 0 2 tcp 1040 ------- 1 0.0 3.0 46 79
- 1.392386 0 2 tcp 1040 ------- 1 0.0 3.0 44 75
r 1.394066 0 2 tcp 1040 ------- 1 0.0 3.0 41 69
+ 1.394066 2 3 tcp 1040 ------- 1 0.0 3.0 41 69
- 1.395628 2 3 tcp 1040 ------- 1 0.0 3.0 38 63
r 1.396052 2 3 tcp 1040 ------- 1 0.0 3.0 33 56
+ 1.396052 3 2 ack 40 ------- 1 3.0 0.0 33 80
- 1.396052 3 2 ack 40 ------- 1 3.0 0.0 33 80
- 1.396546 0 2 tcp 1040 ------- 1 0.0 3.0 45 77
r 1.396664 3 2 ack 40 ------- 1 3.0 0.0 29 72
+ 1.396664 2 0 ack 40 ------- 1 3.0 0.0 29 72
- 1.396664 2 0 ack 40 ------- 1 3.0 0.0 29 72
r 1.397035 2 0 ack 40 ------- 1 3.0 0.0 27 68
+ 1.397035 0 2 tcp 1040 ------- 1 0.0 3.0 47 81
r 1.398226 0 2 tcp 1040 ------- 1 0.0 3.0 42 71
+ 1.398226 2 3 tcp 1040 ------- 1 0.0 3.0 42 71
- 1.400522 2 3 tcp 1040 ------- 1 0.0 3.0 39 65
- 1.400706 0 2 tcp 1040 ------- 1 0.0 3.0 46 79
r 1.400946 2 3 tcp 1040 ------- 1 0.0 3.0 34 57
+ 1.400946 3 2 ack 40 ------- 1 3.0 0.0 34 82
- 1.400946 3 2 ack 40 ------- 1 3.0 0.0 34 82
r 1.401558 3 2 ack 40 ------- 1 3.0 0.0 30 74
+ 1.401558 2 0 ack 40 ------- 1 3.0 0.0 30 74
- 1.401558 2 0 ack 40 ------- 1 3.0 0.0 30 74
r 1.401929 2 0 ack 40 ------- 1 3.0 0.0 28 70
+ 1.401929 0 2 tcp 1040 ------- 1 0.0 3.0 48 83
r 1.402386 0 2 tcp 1040 ------- 1 0.0 3.0 43 73
+ 1.402386 2 3 tcp 1040 ------- 1 0.0 3.0 43 73
- 1.404866 0 2 tcp 1040 ------- 1 0.0 3.0 47 81
- 1.405416 2 3 tcp 1040 ------- 1 0.0 3.0 40 67
r 1.40584 2 3 tcp 1040 ------- 1 0.0 3.0 35 59
+ 1.40584 3 2 ack 40 ------- 1 3.0 0.0 35 84
- 1.40584 3 2 ack 40 ------- 1 3.0 0.0 35 84
r 1.406452 3 2 ack 40 ------- 1 3.0 0.0 31 76
+ 1.406452 2 0 ack 40 ------- 1 3.0 0.0 31 76
- 1.406452 2 0 ack 40 ------- 1 3.0 0.0 31 76
r 1.406546 0 2 tcp 1040 ------- 1 0.0 3.0 44 75
+ 1.406546 2 3 tcp 1040 ------- 1 0.0 3.0 44 75
r 1.406824 2 0 ack 40 ------- 1 3.0 0.0 29 72
+ 1.406824 0 2 tcp 1040 ------- 1 0.0 3.0 49 85
- 1.409026 0 2 tcp 1040 ------- 1 0.0 3.0 48 83
- 1.410311 2 3 tcp 1040 ------- 1 0.0 3.0 41 69
r 1.410706 0 2 tcp 1040 ------- 1 0.0 3.0 45 77
+ 1.410706 2 3 tcp 1040 ------- 1 0.0 3.0 45 77
r 1.410734 2 3 tcp 1040 ------- 1 0.0 3.0 36 60
+ 1.410734 3 2 ack 40 ------- 1 3.0 0.0 36 86
- 1.410734 3 2 ack 40 ------- 1 3.0 0.0 36 86
r 1.411346 3 2 ack 40 ------- 1 3.0 0.0 32 78
+ 1.411346 2 0 ack 40 ------- 1 3.0 0.0 32 78
- 1.411346 2 0 ack 40 ------- 1 3.0 0.0 32 78
r 1.411718 2 0 ack 40 ------- 1 3.0 0.0 30 74
+ 1.411718 0 2 tcp 1040 ------- 1 0.0 3.0 50 87
- 1.413186 0 2 tcp 1040 ------- 1 0.0 3.0 49 85
r 1.414866 0 2 tcp 1040 ------- 1 0.0 3.0 46 79
+ 1.414866 2 3 tcp 1040 ------- 1 0.0 3.0 46 79
- 1.415205 2 3 tcp 1040 ------- 1 0.0 3.0 42 71
r 1.415628 2 3 tcp 1040 ------- 1 0.0 3.0 37 62
+ 1.415628 3 2 ack 40 ------- 1 3.0 0.0 37 88
- 1.415628 3 2 ack 40 ------- 1 3.0 0.0 37 88
r 1.41624 3 2 ack 40 ------- 1 3.0 0.0 33 80
+ 1.41624 2 0 ack 40 ------- 1 3.0 0.0 33 80
- 1.41624 2 0 ack 40 ------- 1 3.0 0.0 33 80
r 1.416612 2 0 ack 40 ------- 1 3.0 0.0 31 76
+ 1.416612 0 2 tcp 1040 ------- 1 0.0 3.0 51 89
- 1.417346 0 2 tcp 1040 ------- 1 0.0 3.0 50 87
r 1.419026 0 2 tcp 1040 ------- 1 0.0 3.0 47 81
+ 1.419026 2 3 tcp 1040 ------- 1 0.0 3.0 47 81
- 1.420099 2 3 tcp 1040 ------- 1 0.0 3.0 43 73
r 1.420522 2 3 tcp 1040 ------- 1 0.0 3.0 38 63
+ 1.420522 3 2 ack 40 ------- 1 3.0 0.0 38 90
- 1.420522 3 2 ack 40 ------- 1 3.0 0.0 38 90
r 1.421134 3 2 ack 40 ------- 1 3.0 0.0 34 82
+ 1.421134 2 0 ack 40 ------- 1 3.0 0.0 34 82
- 1.421134 2 0 ack 40 ------- 1 3.0 0.0 34 82
r 1.421506 2 0 ack 40 ------- 1 3.0 0.0 32 78
+ 1.421506 0 2 tcp 1040 ------- 1 0.0 3.0 52 91
- 1.421506 0 2 tcp 1040 ------- 1 0.0 3.0 51 89
r 1.423186 0 2 tcp 1040 ------- 1 0.0 3.0 48 83
+ 1.423186 2 3 tcp 1040 ------- 1 0.0 3.0 48 83
- 1.424993 2 3 tcp 1040 ------- 1 0.0 3.0 44 75
r 1.425416 2 3 tcp 1040 ------- 1 0.0 3.0 39 65
+ 1.425416 3 2 ack 40 ------- 1 3.0 0.0 39 92
- 1.425416 3 2 ack 40 ------- 1 3.0 0.0 39 92
- 1.425666 0 2 tcp 1040 ------- 1 0.0 3.0 52 91
r 1.426028 3 2 ack 40 ------- 1 3.0 0.0 35 84
+ 1.426028 2 0 ack 40 ------- 1 3.0 0.0 35 84
- 1.426028 2 0 ack 40 ------- 1 3.0 0.0 35 84
r 1.4264 2 0 ack 40 ------- 1 3.0 0.0 33 80
+ 1.4264 0 2 tcp 1040 ------- 1 0.0 3.0 53 93
r 1.427346 0 2 tcp 1040 ------- 1 0.0 3.0 49 85
+ 1.427346 2 3 tcp 1040 ------- 1 0.0 3.0 49 85
- 1.429826 0 2 tcp 1040 ------- 1 0.0 3.0 53 93
- 1.429887 2 3 tcp 1040 ------- 1 0.0 3.0 45 77
r 1.430311 2 3 tcp 1040 ------- 1 0.0 3.0 40 67
+ 1.430311 3 2 ack 40 ------- 1 3.0 0.0 40 94
- 1.430311 3 2 ack 40 ------- 1 3.0 0.0 40 94
r 1.430922 3 2 ack 40 ------- 1 3.0 0.0 36 86
+ 1.430922 2 0 ack 40 ------- 1 3.0 0.0 36 86
- 1.430922 2 0 ack 40 ------- 1 3.0 0.0 36 86
r 1.431294 2 0 ack 40 ------- 1 3.0 0.0 34 82
+ 1.431294 0 2 tcp 1040 ------- 1 0.0 3.0 54 95
r 1.431506 0 2 tcp 1040 ------- 1 0.0 3.0 50 87
+ 1.431506 2 3 tcp 1040 ------- 1 0.0 3.0 50 87
- 1.433986 0 2 tcp 1040 ------- 1 0.0 3.0 54 95
- 1.434781 2 3 tcp 1040 ------- 1 0.0 3.0 46 79
r 1.435205 2 3 tcp 1040 ------- 1 0.0 3.0 41 69
+ 1.435205 3 2 ack 40 ------- 1 3.0 0.0 41 96
- 1.435205 3 2 ack 40 ------- 1 3.0 0.0 41 96
r 1.435666 0 2 tcp 1040 ------- 1 0.0 3.0 51 89
+ 1.435666 2 3 tcp 1040 ------- 1 0.0 3.0 51 89
r 1.435816 3 2 ack 40 ------- 1 3.0 0.0 37 88
+ 1.435816 2 0 ack 40 ------- 1 3.0 0.0 37 88
- 1.435816 2 0 ack 40 ------- 1 3.0 0.0 37 88
r 1.436188 2 0 ack 40 ------- 1 3.0 0.0 35 84
+ 1.436188 0 2 tcp 1040 ------- 1 0.0 3.0 55 97
- 1.438146 0 2 tcp 1040 ------- 1 0.0 3.0 55 97
- 1.439675 2 3 tcp 1040 ------- 1 0.0 3.0 47 81
r 1.439826 0 2 tcp 1040 ------- 1 0.0 3.0 52 91
+ 1.439826 2 3 tcp 1040 ------- 1 0.0 3.0 52 91
r 1.440099 2 3 tcp 1040 ------- 1 0.0 3.0 42 71
+ 1.440099 3 2 ack 40 ------- 1 3.0 0.0 42 98
- 1.440099 3 2 ack 40 ------- 1 3.0 0.0 42 98
r 1.440711 3 2 ack 40 ------- 1 3.0 0.0 38 90
+ 1.440711 2 0 ack 40 ------- 1 3.0 0.0 38 90
- 1.440711 2 0 ack 40 ------- 1 3.0 0.0 38 90
r 1.441082 2 0 ack 40 ------- 1 3.0 0.0 36 86
+ 1.441082 0 2 tcp 1040 ------- 1 0.0 3.0 56 99
- 1.442306 0 2 tcp 1040 ------- 1 0.0 3.0 56 99
r 1.443986 0 2 tcp 1040 ------- 1 0.0 3.0 53 93
+ 1.443986 2 3 tcp 1040 ------- 1 0.0 3.0 53 93
- 1.444569 2 3 tcp 1040 ------- 1 0.0 3.0 48 83
r 1.444993 2 3 tcp 1040 ------- 1 0.0 3.0 43 73
+ 1.444993 3 2 ack 40 ------- 1 3.0 0.0 43 100
- 1.444993 3 2 ack 40 ------- 1 3.0 0.0 43 100
r 1.445605 3 2 ack 40 ------- 1 3.0 0.0 39 92
+ 1.445605 2 0 ack 40 ------- 1 3.0 0.0 39 92
- 1.445605 2 0 ack 40 ------- 1 3.0 0.0 39 92
r 1.445976 2 0 ack 40 ------- 1 3.0 0.0 37 88
+ 1.445976 0 2 tcp 1040 ------- 1 0.0 3.0 57 101
- 1.446466 0 2 tcp 1040 ------- 1 0.0 3.0 57 101
r 1.448146 0 2 tcp 1040 ------- 1 0.0 3.0 54 95
+ 1.448146 2 3 tcp 1040 ------- 1 0.0 3.0 54 95
- 1.449464 2 3 tcp 1040 ------- 1 0.0 3.0 49 85
r 1.449887 2 3 tcp 1040 ------- 1 0.0 3.0 44 75
+ 1.449887 3 2 ack 40 ------- 1 3.0 0.0 44 102
- 1.449887 3 2 ack 40 ------- 1 3.0 0.0 44 102
r 1.450499 3 2 ack 40 ------- 1 3.0 0.0 40 94
+ 1.450499 2 0 ack 40 ------- 1 3.0 0.0 40 94
- 1.450499 2 0 ack 40 ------- 1 3.0 0.0 40 94
r 1.450871 2 0 ack 40 ------- 1 3.0 0.0 38 90
+ 1.450871 0 2 tcp 1040 ------- 1 0.0 3.0 58 103
- 1.450871 0 2 tcp 1040 ------- 1 0.0 3.0 58 103
r 1.452306 0 2 tcp 1040 ------- 1 0.0 3.0 55 97
+ 1.452306 2 3 tcp 1040 ------- 1 0.0 3.0 55 97
- 1.454358 2 3 tcp 1040 ------- 1 0.0 3.0 50 87
r 1.454781 2 3 tcp 1040 ------- 1 0.0 3.0 45 77
+ 1.454781 3 2 ack 40 ------- 1 3.0 0.0 45 104
- 1.454781 3 2 ack 40 ------- 1 3.0 0.0 45 104
r 1.455393 3 2 ack 40 ------- 1 3.0 0.0 41 96
+ 1.455393 2 0 ack 40 ------- 1 3.0 0.0 41 96
- 1.455393 2 0 ack 40 ------- 1 3.0 0.0 41 96
r 1.455765 2 0 ack 40 ------- 1 3.0 0.0 39 92
+ 1.455765 0 2 tcp 1040 ------- 1 0.0 3.0 59 105
- 1.455765 0 2 tcp 1040 ------- 1 0.0 3.0 59 105
r 1.456466 0 2 tcp 1040 ------- 1 0.0 3.0 56 99
+ 1.456466 2 3 tcp 1040 ------- 1 0.0 3.0 56 99
- 1.459252 2 3 tcp 1040 ------- 1 0.0 3.0 51 89
r 1.459675 2 3 tcp 1040 ------- 1 0.0 3.0 46 79
+ 1.459675 3 2 ack 40 ------- 1 3.0 0.0 46 106
- 1.459675 3 2 ack 40 ------- 1 3.0 0.0 46 106
r 1.460287 3 2 ack 40 ------- 1 3.0 0.0 42 98
+ 1.460287 2 0 ack 40 ------- 1 3.0 0.0 42 98
- 1.460287 2 0 ack 40 ------- 1 3.0 0.0 42 98
r 1.460626 0 2 tcp 1040 ------- 1 0.0 3.0 57 101
+ 1.460626 2 3 tcp 1040 ------- 1 0.0 3.0 57 101
r 1.460659 2 0 ack 40 ------- 1 3.0 0.0 40 94
+ 1.460659 0 2 tcp 1040 ------- 1 0.0 3.0 60 107
- 1.460659 0 2 tcp 1040 ------- 1 0.0 3.0 60 107
- 1.464146 2 3 tcp 1040 ------- 1 0.0 3.0 52 91
r 1.464569 2 3 tcp 1040 ------- 1 0.0 3.0 47 81
+ 1.464569 3 2 ack 40 ------- 1 3.0 0.0 47 108
- 1.464569 3 2 ack 40 ------- 1 3.0 0.0 47 108
r 1.465031 0 2 tcp 1040 ------- 1 0.0 3.0 58 103
+ 1.465031 2 3 tcp 1040 ------- 1 0.0 3.0 58 103
r 1.465181 3 2 ack 40 ------- 1 3.0 0.0 43 100
+ 1.465181 2 0 ack 40 ------- 1 3.0 0.0 43 100
- 1.465181 2 0 ack 40 ------- 1 3.0 0.0 43 100
r 1.465553 2 0 ack 40 ------- 1 3.0 0.0 41 96
+ 1.465553 0 2 tcp 1040 ------- 1 0.0 3.0 61 109
- 1.465553 0 2 tcp 1040 ------- 1 0.0 3.0 61 109
- 1.46904 2 3 tcp 1040 ------- 1 0.0 3.0 53 93
r 1.469464 2 3 tcp 1040 ------- 1 0.0 3.0 48 83
+ 1.469464 3 2 ack 40 ------- 1 3.0 0.0 48 110
- 1.469464 3 2 ack 40 ------- 1 3.0 0.0 48 110
r 1.469925 0 2 tcp 1040 ------- 1 0.0 3.0 59 105
+ 1.469925 2 3 tcp 1040 ------- 1 0.0 3.0 59 105
r 1.470075 3 2 ack 40 ------- 1 3.0 0.0 44 102
+ 1.470075 2 0 ack 40 ------- 1 3.0 0.0 44 102
- 1.470075 2 0 ack 40 ------- 1 3.0 0.0 44 102
r 1.470447 2 0 ack 40 ------- 1 3.0 0.0 42 98
+ 1.470447 0 2 tcp 1040 ------- 1 0.0 3.0 62 111
- 1.470447 0 2 tcp 1040 ------- 1 0.0 3.0 62 111
- 1.473934 2 3 tcp 1040 ------- 1 0.0 3.0 54 95
r 1.474358 2 3 tcp 1040 ------- 1 0.0 3.0 49 85
+ 1.474358 3 2 ack 40 ------- 1 3.0 0.0 49 112
- 1.474358 3 2 ack 40 ------- 1 3.0 0.0 49 112
r 1.474819 0 2 tcp 1040 ------- 1 0.0 3.0 60 107
+ 1.474819 2 3 tcp 1040 ------- 1 0.0 3.0 60 107
r 1.474969 3 2 ack 40 ------- 1 3.0 0.0 45 104
+ 1.474969 2 0 ack 40 ------- 1 3.0 0.0 45 104
- 1.474969 2 0 ack 40 ------- 1 3.0 0.0 45 104
r 1.475341 2 0 ack 40 ------- 1 3.0 0.0 43 100
+ 1.475341 0 2 tcp 1040 ------- 1 0.0 3.0 63 113
- 1.475341 0 2 tcp 1040 ------- 1 0.0 3.0 63 113
- 1.478828 2 3 tcp 1040 ------- 1 0.0 3.0 55 97
r 1.479252 2 3 tcp 1040 ------- 1 0.0 3.0 50 87
+ 1.479252 3 2 ack 40 ------- 1 3.0 0.0 50 114