+ 0.1 0 4 tcp 40 ------- 1 0.0 2.0 0 0
- 0.1 0 4 tcp 40 ------- 1 0.0 2.0 0 0
+ 0.1 1 4 tcp 40 ------- 2 1.0 3.0 0 1
- 0.1 1 4 tcp 40 ------- 2 1.0 3.0 0 1
r 0.115064 0 4 tcp 40 ------- 1 0.0 2.0 0 0
+ 0.115064 4 2 tcp 40 ------- 1 0.0 2.0 0 0
- 0.115064 4 2 tcp 40 ------- 1 0.0 2.0 0 0
r 0.120064 1 4 tcp 40 ------- 2 1.0 3.0 0 1
+ 0.120064 4 3 tcp 40 ------- 2 1.0 3.0 0 1
- 0.120064 4 3 tcp 40 ------- 2 1.0 3.0 0 1
r 0.130224 4 3 tcp 40 ------- 2 1.0 3.0 0 1
+ 0.130224 3 4 ack 40 ------- 2 3.0 1.0 0 2
- 0.130224 3 4 ack 40 ------- 2 3.0 1.0 0 2
r 0.135384 4 2 tcp 40 ------- 1 0.0 2.0 0 0
+ 0.135384 2 4 ack 40 ------- 1 2.0 0.0 0 3
- 0.135384 2 4 ack 40 ------- 1 2.0 0.0 0 3
r 0.140384 3 4 ack 40 ------- 2 3.0 1.0 0 2
+ 0.140384 4 1 ack 40 ------- 2 3.0 1.0 0 2
- 0.140384 4 1 ack 40 ------- 2 3.0 1.0 0 2
r 0.155704 2 4 ack 40 ------- 1 2.0 0.0 0 3
+ 0.155704 4 0 ack 40 ------- 1 2.0 0.0 0 3
- 0.155704 4 0 ack 40 ------- 1 2.0 0.0 0 3
r 0.160448 4 1 ack 40 ------- 2 3.0 1.0 0 2
+ 0.160448 1 4 tcp 1040 ------- 2 1.0 3.0 1 4
- 0.160448 1 4 tcp 1040 ------- 2 1.0 3.0 1 4
+ 0.160448 1 4 tcp 1040 ------- 2 1.0 3.0 2 5
- 0.162112 1 4 tcp 1040 ------- 2 1.0 3.0 2 5
r 0.170768 4 0 ack 40 ------- 1 2.0 0.0 0 3
+ 0.170768 0 4 tcp 1040 ------- 1 0.0 2.0 1 6
- 0.170768 0 4 tcp 1040 ------- 1 0.0 2.0 1 6
+ 0.170768 0 4 tcp 1040 ------- 1 0.0 2.0 2 7
- 0.172432 0 4 tcp 1040 ------- 1 0.0 2.0 2 7
r 0.182112 1 4 tcp 1040 ------- 2 1.0 3.0 1 4
+ 0.182112 4 3 tcp 1040 ------- 2 1.0 3.0 1 4
- 0.182112 4 3 tcp 1040 ------- 2 1.0 3.0 1 4
r 0.183776 1 4 tcp 1040 ------- 2 1.0 3.0 2 5
+ 0.183776 4 3 tcp 1040 ------- 2 1.0 3.0 2 5
- 0.186272 4 3 tcp 1040 ------- 2 1.0 3.0 2 5
r 0.187432 0 4 tcp 1040 ------- 1 0.0 2.0 1 6
+ 0.187432 4 2 tcp 1040 ------- 1 0.0 2.0 1 6
- 0.187432 4 2 tcp 1040 ------- 1 0.0 2.0 1 6
r 0.189096 0 4 tcp 1040 ------- 1 0.0 2.0 2 7
+ 0.189096 4 2 tcp 1040 ------- 1 0.0 2.0 2 7
- 0.195752 4 2 tcp 1040 ------- 1 0.0 2.0 2 7
r 0.196272 4 3 tcp 1040 ------- 2 1.0 3.0 1 4
+ 0.196272 3 4 ack 40 ------- 2 3.0 1.0 1 8
- 0.196272 3 4 ack 40 ------- 2 3.0 1.0 1 8
r 0.200432 4 3 tcp 1040 ------- 2 1.0 3.0 2 5
+ 0.200432 3 4 ack 40 ------- 2 3.0 1.0 2 9
- 0.200432 3 4 ack 40 ------- 2 3.0 1.0 2 9
r 0.206432 3 4 ack 40 ------- 2 3.0 1.0 1 8
+ 0.206432 4 1 ack 40 ------- 2 3.0 1.0 1 8
- 0.206432 4 1 ack 40 ------- 2 3.0 1.0 1 8
r 0.210592 3 4 ack 40 ------- 2 3.0 1.0 2 9
+ 0.210592 4 1 ack 40 ------- 2 3.0 1.0 2 9
- 0.210592 4 1 ack 40 ------- 2 3.0 1.0 2 9
r 0.215752 4 2 tcp 1040 ------- 1 0.0 2.0 1 6
+ 0.215752 2 4 ack 40 ------- 1 2.0 0.0 1 10
- 0.215752 2 4 ack 40 ------- 1 2.0 0.0 1 10
r 0.224072 4 2 tcp 1040 ------- 1 0.0 2.0 2 7
+ 0.224072 2 4 ack 40 ------- 1 2.0 0.0 2 11
- 0.224072 2 4 ack 40 ------- 1 2.0 0.0 2 11
r 0.226496 4 1 ack 40 ------- 2 3.0 1.0 1 8
+ 0.226496 1 4 tcp 1040 ------- 2 1.0 3.0 3 12
- 0.226496 1 4 tcp 1040 ------- 2 1.0 3.0 3 12
+ 0.226496 1 4 tcp 1040 ------- 2 1.0 3.0 4 13
- 0.22816 1 4 tcp 1040 ------- 2 1.0 3.0 4 13
r 0.230656 4 1 ack 40 ------- 2 3.0 1.0 2 9
+ 0.230656 1 4 tcp 1040 ------- 2 1.0 3.0 5 14
- 0.230656 1 4 tcp 1040 ------- 2 1.0 3.0 5 14
+ 0.230656 1 4 tcp 1040 ------- 2 1.0 3.0 6 15
- 0.23232 1 4 tcp 1040 ------- 2 1.0 3.0 6 15
r 0.236072 2 4 ack 40 ------- 1 2.0 0.0 1 10
+ 0.236072 4 0 ack 40 ------- 1 2.0 0.0 1 10
- 0.236072 4 0 ack 40 ------- 1 2.0 0.0 1 10
r 0.244392 2 4 ack 40 ------- 1 2.0 0.0 2 11
+ 0.244392 4 0 ack 40 ------- 1 2.0 0.0 2 11
- 0.244392 4 0 ack 40 ------- 1 2.0 0.0 2 11
r 0.24816 1 4 tcp 1040 ------- 2 1.0 3.0 3 12
+ 0.24816 4 3 tcp 1040 ------- 2 1.0 3.0 3 12
- 0.24816 4 3 tcp 1040 ------- 2 1.0 3.0 3 12
r 0.249824 1 4 tcp 1040 ------- 2 1.0 3.0 4 13
+ 0.249824 4 3 tcp 1040 ------- 2 1.0 3.0 4 13
r 0.251136 4 0 ack 40 ------- 1 2.0 0.0 1 10
+ 0.251136 0 4 tcp 1040 ------- 1 0.0 2.0 3 16
- 0.251136 0 4 tcp 1040 ------- 1 0.0 2.0 3 16
+ 0.251136 0 4 tcp 1040 ------- 1 0.0 2.0 4 17
r 0.25232 1 4 tcp 1040 ------- 2 1.0 3.0 5 14
+ 0.25232 4 3 tcp 1040 ------- 2 1.0 3.0 5 14
- 0.25232 4 3 tcp 1040 ------- 2 1.0 3.0 4 13
- 0.2528 0 4 tcp 1040 ------- 1 0.0 2.0 4 17
r 0.253984 1 4 tcp 1040 ------- 2 1.0 3.0 6 15
+ 0.253984 4 3 tcp 1040 ------- 2 1.0 3.0 6 15
- 0.25648 4 3 tcp 1040 ------- 2 1.0 3.0 5 14
r 0.259456 4 0 ack 40 ------- 1 2.0 0.0 2 11
+ 0.259456 0 4 tcp 1040 ------- 1 0.0 2.0 5 18
- 0.259456 0 4 tcp 1040 ------- 1 0.0 2.0 5 18
+ 0.259456 0 4 tcp 1040 ------- 1 0.0 2.0 6 19
- 0.26064 4 3 tcp 1040 ------- 2 1.0 3.0 6 15
- 0.26112 0 4 tcp 1040 ------- 1 0.0 2.0 6 19
r 0.26232 4 3 tcp 1040 ------- 2 1.0 3.0 3 12
+ 0.26232 3 4 ack 40 ------- 2 3.0 1.0 3 20
- 0.26232 3 4 ack 40 ------- 2 3.0 1.0 3 20
r 0.26648 4 3 tcp 1040 ------- 2 1.0 3.0 4 13
+ 0.26648 3 4 ack 40 ------- 2 3.0 1.0 4 21
- 0.26648 3 4 ack 40 ------- 2 3.0 1.0 4 21
r 0.2678 0 4 tcp 1040 ------- 1 0.0 2.0 3 16
+ 0.2678 4 2 tcp 1040 ------- 1 0.0 2.0 3 16
- 0.2678 4 2 tcp 1040 ------- 1 0.0 2.0 3 16
r 0.269464 0 4 tcp 1040 ------- 1 0.0 2.0 4 17
+ 0.269464 4 2 tcp 1040 ------- 1 0.0 2.0 4 17
r 0.27064 4 3 tcp 1040 ------- 2 1.0 3.0 5 14
+ 0.27064 3 4 ack 40 ------- 2 3.0 1.0 5 22
- 0.27064 3 4 ack 40 ------- 2 3.0 1.0 5 22
r 0.27248 3 4 ack 40 ------- 2 3.0 1.0 3 20
+ 0.27248 4 1 ack 40 ------- 2 3.0 1.0 3 20
- 0.27248 4 1 ack 40 ------- 2 3.0 1.0 3 20
r 0.2748 4 3 tcp 1040 ------- 2 1.0 3.0 6 15
+ 0.2748 3 4 ack 40 ------- 2 3.0 1.0 6 23
- 0.2748 3 4 ack 40 ------- 2 3.0 1.0 6 23
r 0.27612 0 4 tcp 1040 ------- 1 0.0 2.0 5 18
+ 0.27612 4 2 tcp 1040 ------- 1 0.0 2.0 5 18
- 0.27612 4 2 tcp 1040 ------- 1 0.0 2.0 4 17
r 0.27664 3 4 ack 40 ------- 2 3.0 1.0 4 21
+ 0.27664 4 1 ack 40 ------- 2 3.0 1.0 4 21
- 0.27664 4 1 ack 40 ------- 2 3.0 1.0 4 21
r 0.277784 0 4 tcp 1040 ------- 1 0.0 2.0 6 19
+ 0.277784 4 2 tcp 1040 ------- 1 0.0 2.0 6 19
r 0.2808 3 4 ack 40 ------- 2 3.0 1.0 5 22
+ 0.2808 4 1 ack 40 ------- 2 3.0 1.0 5 22
- 0.2808 4 1 ack 40 ------- 2 3.0 1.0 5 22
- 0.28444 4 2 tcp 1040 ------- 1 0.0 2.0 5 18
r 0.28496 3 4 ack 40 ------- 2 3.0 1.0 6 23
+ 0.28496 4 1 ack 40 ------- 2 3.0 1.0 6 23
- 0.28496 4 1 ack 40 ------- 2 3.0 1.0 6 23
r 0.292544 4 1 ack 40 ------- 2 3.0 1.0 3 20
+ 0.292544 1 4 tcp 1040 ------- 2 1.0 3.0 7 24
- 0.292544 1 4 tcp 1040 ------- 2 1.0 3.0 7 24
+ 0.292544 1 4 tcp 1040 ------- 2 1.0 3.0 8 25
- 0.29276 4 2 tcp 1040 ------- 1 0.0 2.0 6 19
- 0.294208 1 4 tcp 1040 ------- 2 1.0 3.0 8 25
r 0.29612 4 2 tcp 1040 ------- 1 0.0 2.0 3 16
+ 0.29612 2 4 ack 40 ------- 1 2.0 0.0 3 26
- 0.29612 2 4 ack 40 ------- 1 2.0 0.0 3 26
r 0.296704 4 1 ack 40 ------- 2 3.0 1.0 4 21
+ 0.296704 1 4 tcp 1040 ------- 2 1.0 3.0 9 27
- 0.296704 1 4 tcp 1040 ------- 2 1.0 3.0 9 27
+ 0.296704 1 4 tcp 1040 ------- 2 1.0 3.0 10 28
- 0.298368 1 4 tcp 1040 ------- 2 1.0 3.0 10 28
r 0.300864 4 1 ack 40 ------- 2 3.0 1.0 5 22
+ 0.300864 1 4 tcp 1040 ------- 2 1.0 3.0 11 29
- 0.300864 1 4 tcp 1040 ------- 2 1.0 3.0 11 29
+ 0.300864 1 4 tcp 1040 ------- 2 1.0 3.0 12 30
- 0.302528 1 4 tcp 1040 ------- 2 1.0 3.0 12 30
r 0.30444 4 2 tcp 1040 ------- 1 0.0 2.0 4 17
+ 0.30444 2 4 ack 40 ------- 1 2.0 0.0 4 31
- 0.30444 2 4 ack 40 ------- 1 2.0 0.0 4 31
r 0.305024 4 1 ack 40 ------- 2 3.0 1.0 6 23
+ 0.305024 1 4 tcp 1040 ------- 2 1.0 3.0 13 32
- 0.305024 1 4 tcp 1040 ------- 2 1.0 3.0 13 32
+ 0.305024 1 4 tcp 1040 ------- 2 1.0 3.0 14 33
- 0.306688 1 4 tcp 1040 ------- 2 1.0 3.0 14 33
r 0.31276 4 2 tcp 1040 ------- 1 0.0 2.0 5 18
+ 0.31276 2 4 ack 40 ------- 1 2.0 0.0 5 34
- 0.31276 2 4 ack 40 ------- 1 2.0 0.0 5 34
r 0.314208 1 4 tcp 1040 ------- 2 1.0 3.0 7 24
+ 0.314208 4 3 tcp 1040 ------- 2 1.0 3.0 7 24
- 0.314208 4 3 tcp 1040 ------- 2 1.0 3.0 7 24
r 0.315872 1 4 tcp 1040 ------- 2 1.0 3.0 8 25
+ 0.315872 4 3 tcp 1040 ------- 2 1.0 3.0 8 25
r 0.31644 2 4 ack 40 ------- 1 2.0 0.0 3 26
+ 0.31644 4 0 ack 40 ------- 1 2.0 0.0 3 26
- 0.31644 4 0 ack 40 ------- 1 2.0 0.0 3 26
r 0.318368 1 4 tcp 1040 ------- 2 1.0 3.0 9 27
+ 0.318368 4 3 tcp 1040 ------- 2 1.0 3.0 9 27
- 0.318368 4 3 tcp 1040 ------- 2 1.0 3.0 8 25
r 0.320032 1 4 tcp 1040 ------- 2 1.0 3.0 10 28
+ 0.320032 4 3 tcp 1040 ------- 2 1.0 3.0 10 28
r 0.32108 4 2 tcp 1040 ------- 1 0.0 2.0 6 19
+ 0.32108 2 4 ack 40 ------- 1 2.0 0.0 6 35
- 0.32108 2 4 ack 40 ------- 1 2.0 0.0 6 35
r 0.322528 1 4 tcp 1040 ------- 2 1.0 3.0 11 29
+ 0.322528 4 3 tcp 1040 ------- 2 1.0 3.0 11 29
- 0.322528 4 3 tcp 1040 ------- 2 1.0 3.0 9 27
r 0.324192 1 4 tcp 1040 ------- 2 1.0 3.0 12 30
+ 0.324192 4 3 tcp 1040 ------- 2 1.0 3.0 12 30
r 0.32476 2 4 ack 40 ------- 1 2.0 0.0 4 31
+ 0.32476 4 0 ack 40 ------- 1 2.0 0.0 4 31
- 0.32476 4 0 ack 40 ------- 1 2.0 0.0 4 31
r 0.326688 1 4 tcp 1040 ------- 2 1.0 3.0 13 32
+ 0.326688 4 3 tcp 1040 ------- 2 1.0 3.0 13 32
- 0.326688 4 3 tcp 1040 ------- 2 1.0 3.0 10 28
r 0.328352 1 4 tcp 1040 ------- 2 1.0 3.0 14 33
+ 0.328352 4 3 tcp 1040 ------- 2 1.0 3.0 14 33
r 0.328368 4 3 tcp 1040 ------- 2 1.0 3.0 7 24
+ 0.328368 3 4 ack 40 ------- 2 3.0 1.0 7 36
- 0.328368 3 4 ack 40 ------- 2 3.0 1.0 7 36
- 0.330848 4 3 tcp 1040 ------- 2 1.0 3.0 11 29
r 0.331504 4 0 ack 40 ------- 1 2.0 0.0 3 26
+ 0.331504 0 4 tcp 1040 ------- 1 0.0 2.0 7 37
- 0.331504 0 4 tcp 1040 ------- 1 0.0 2.0 7 37
+ 0.331504 0 4 tcp 1040 ------- 1 0.0 2.0 8 38
r 0.332528 4 3 tcp 1040 ------- 2 1.0 3.0 8 25
+ 0.332528 3 4 ack 40 ------- 2 3.0 1.0 8 39
- 0.332528 3 4 ack 40 ------- 2 3.0 1.0 8 39
r 0.33308 2 4 ack 40 ------- 1 2.0 0.0 5 34
+ 0.33308 4 0 ack 40 ------- 1 2.0 0.0 5 34
- 0.33308 4 0 ack 40 ------- 1 2.0 0.0 5 34
- 0.333168 0 4 tcp 1040 ------- 1 0.0 2.0 8 38
- 0.335008 4 3 tcp 1040 ------- 2 1.0 3.0 12 30
r 0.336688 4 3 tcp 1040 ------- 2 1.0 3.0 9 27
+ 0.336688 3 4 ack 40 ------- 2 3.0 1.0 9 40
- 0.336688 3 4 ack 40 ------- 2 3.0 1.0 9 40
r 0.338528 3 4 ack 40 ------- 2 3.0 1.0 7 36
+ 0.338528 4 1 ack 40 ------- 2 3.0 1.0 7 36
- 0.338528 4 1 ack 40 ------- 2 3.0 1.0 7 36
- 0.339168 4 3 tcp 1040 ------- 2 1.0 3.0 13 32
r 0.339824 4 0 ack 40 ------- 1 2.0 0.0 4 31
+ 0.339824 0 4 tcp 1040 ------- 1 0.0 2.0 9 41
- 0.339824 0 4 tcp 1040 ------- 1 0.0 2.0 9 41
+ 0.339824 0 4 tcp 1040 ------- 1 0.0 2.0 10 42
r 0.340848 4 3 tcp 1040 ------- 2 1.0 3.0 10 28
+ 0.340848 3 4 ack 40 ------- 2 3.0 1.0 10 43
- 0.340848 3 4 ack 40 ------- 2 3.0 1.0 10 43
r 0.3414 2 4 ack 40 ------- 1 2.0 0.0 6 35
+ 0.3414 4 0 ack 40 ------- 1 2.0 0.0 6 35
- 0.3414 4 0 ack 40 ------- 1 2.0 0.0 6 35
- 0.341488 0 4 tcp 1040 ------- 1 0.0 2.0 10 42
r 0.342688 3 4 ack 40 ------- 2 3.0 1.0 8 39
+ 0.342688 4 1 ack 40 ------- 2 3.0 1.0 8 39
- 0.342688 4 1 ack 40 ------- 2 3.0 1.0 8 39
- 0.343328 4 3 tcp 1040 ------- 2 1.0 3.0 14 33
r 0.345008 4 3 tcp 1040 ------- 2 1.0 3.0 11 29
+ 0.345008 3 4 ack 40 ------- 2 3.0 1.0 11 44
- 0.345008 3 4 ack 40 ------- 2 3.0 1.0 11 44
r 0.346848 3 4 ack 40 ------- 2 3.0 1.0 9 40
+ 0.346848 4 1 ack 40 ------- 2 3.0 1.0 9 40
- 0.346848 4 1 ack 40 ------- 2 3.0 1.0 9 40
r 0.348144 4 0 ack 40 ------- 1 2.0 0.0 5 34
+ 0.348144 0 4 tcp 1040 ------- 1 0.0 2.0 11 45
- 0.348144 0 4 tcp 1040 ------- 1 0.0 2.0 11 45
+ 0.348144 0 4 tcp 1040 ------- 1 0.0 2.0 12 46
r 0.348168 0 4 tcp 1040 ------- 1 0.0 2.0 7 37
+ 0.348168 4 2 tcp 1040 ------- 1 0.0 2.0 7 37
- 0.348168 4 2 tcp 1040 ------- 1 0.0 2.0 7 37
r 0.349168 4 3 tcp 1040 ------- 2 1.0 3.0 12 30
+ 0.349168 3 4 ack 40 ------- 2 3.0 1.0 12 47
- 0.349168 3 4 ack 40 ------- 2 3.0 1.0 12 47
- 0.349808 0 4 tcp 1040 ------- 1 0.0 2.0 12 46
r 0.349832 0 4 tcp 1040 ------- 1 0.0 2.0 8 38
+ 0.349832 4 2 tcp 1040 ------- 1 0.0 2.0 8 38
r 0.351008 3 4 ack 40 ------- 2 3.0 1.0 10 43
+ 0.351008 4 1 ack 40 ------- 2 3.0 1.0 10 43
- 0.351008 4 1 ack 40 ------- 2 3.0 1.0 10 43
r 0.353328 4 3 tcp 1040 ------- 2 1.0 3.0 13 32
+ 0.353328 3 4 ack 40 ------- 2 3.0 1.0 13 48
- 0.353328 3 4 ack 40 ------- 2 3.0 1.0 13 48
r 0.355168 3 4 ack 40 ------- 2 3.0 1.0 11 44
+ 0.355168 4 1 ack 40 ------- 2 3.0 1.0 11 44
- 0.355168 4 1 ack 40 ------- 2 3.0 1.0 11 44
r 0.356464 4 0 ack 40 ------- 1 2.0 0.0 6 35
+ 0.356464 0 4 tcp 1040 ------- 1 0.0 2.0 13 49
- 0.356464 0 4 tcp 1040 ------- 1 0.0 2.0 13 49
+ 0.356464 0 4 tcp 1040 ------- 1 0.0 2.0 14 50
r 0.356488 0 4 tcp 1040 ------- 1 0.0 2.0 9 41
+ 0.356488 4 2 tcp 1040 ------- 1 0.0 2.0 9 41
- 0.356488 4 2 tcp 1040 ------- 1 0.0 2.0 8 38
r 0.357488 4 3 tcp 1040 ------- 2 1.0 3.0 14 33
+ 0.357488 3 4 ack 40 ------- 2 3.0 1.0 14 51
- 0.357488 3 4 ack 40 ------- 2 3.0 1.0 14 51
- 0.358128 0 4 tcp 1040 ------- 1 0.0 2.0 14 50
r 0.358152 0 4 tcp 1040 ------- 1 0.0 2.0 10 42
+ 0.358152 4 2 tcp 1040 ------- 1 0.0 2.0 10 42
r 0.358592 4 1 ack 40 ------- 2 3.0 1.0 7 36
+ 0.358592 1 4 tcp 1040 ------- 2 1.0 3.0 15 52
- 0.358592 1 4 tcp 1040 ------- 2 1.0 3.0 15 52
+ 0.358592 1 4 tcp 1040 ------- 2 1.0 3.0 16 53
r 0.359328 3 4 ack 40 ------- 2 3.0 1.0 12 47
+ 0.359328 4 1 ack 40 ------- 2 3.0 1.0 12 47
- 0.359328 4 1 ack 40 ------- 2 3.0 1.0 12 47
- 0.360256 1 4 tcp 1040 ------- 2 1.0 3.0 16 53
r 0.362752 4 1 ack 40 ------- 2 3.0 1.0 8 39
+ 0.362752 1 4 tcp 1040 ------- 2 1.0 3.0 17 54
- 0.362752 1 4 tcp 1040 ------- 2 1.0 3.0 17 54
+ 0.362752 1 4 tcp 1040 ------- 2 1.0 3.0 18 55
r 0.363488 3 4 ack 40 ------- 2 3.0 1.0 13 48
+ 0.363488 4 1 ack 40 ------- 2 3.0 1.0 13 48
- 0.363488 4 1 ack 40 ------- 2 3.0 1.0 13 48
- 0.364416 1 4 tcp 1040 ------- 2 1.0 3.0 18 55
r 0.364808 0 4 tcp 1040 ------- 1 0.0 2.0 11 45
+ 0.364808 4 2 tcp 1040 ------- 1 0.0 2.0 11 45
- 0.364808 4 2 tcp 1040 ------- 1 0.0 2.0 9 41
r 0.366472 0 4 tcp 1040 ------- 1 0.0 2.0 12 46
+ 0.366472 4 2 tcp 1040 ------- 1 0.0 2.0 12 46
r 0.366912 4 1 ack 40 ------- 2 3.0 1.0 9 40
+ 0.366912 1 4 tcp 1040 ------- 2 1.0 3.0 19 56
- 0.366912 1 4 tcp 1040 ------- 2 1.0 3.0 19 56
+ 0.366912 1 4 tcp 1040 ------- 2 1.0 3.0 20 57
r 0.367648 3 4 ack 40 ------- 2 3.0 1.0 14 51
+ 0.367648 4 1 ack 40 ------- 2 3.0 1.0 14 51
- 0.367648 4 1 ack 40 ------- 2 3.0 1.0 14 51
- 0.368576 1 4 tcp 1040 ------- 2 1.0 3.0 20 57
r 0.371072 4 1 ack 40 ------- 2 3.0 1.0 10 43
+ 0.371072 1 4 tcp 1040 ------- 2 1.0 3.0 21 58
- 0.371072 1 4 tcp 1040 ------- 2 1.0 3.0 21 58
+ 0.371072 1 4 tcp 1040 ------- 2 1.0 3.0 22 59
- 0.372736 1 4 tcp 1040 ------- 2 1.0 3.0 22 59
r 0.373128 0 4 tcp 1040 ------- 1 0.0 2.0 13 49
+ 0.373128 4 2 tcp 1040 ------- 1 0.0 2.0 13 49
- 0.373128 4 2 tcp 1040 ------- 1 0.0 2.0 10 42
r 0.374792 0 4 tcp 1040 ------- 1 0.0 2.0 14 50
+ 0.374792 4 2 tcp 1040 ------- 1 0.0 2.0 14 50
r 0.375232 4 1 ack 40 ------- 2 3.0 1.0 11 44
+ 0.375232 1 4 tcp 1040 ------- 2 1.0 3.0 23 60
- 0.375232 1 4 tcp 1040 ------- 2 1.0 3.0 23 60
+ 0.375232 1 4 tcp 1040 ------- 2 1.0 3.0 24 61
r 0.376488 4 2 tcp 1040 ------- 1 0.0 2.0 7 37
+ 0.376488 2 4 ack 40 ------- 1 2.0 0.0 7 62
- 0.376488 2 4 ack 40 ------- 1 2.0 0.0 7 62
- 0.376896 1 4 tcp 1040 ------- 2 1.0 3.0 24 61
r 0.379392 4 1 ack 40 ------- 2 3.0 1.0 12 47
+ 0.379392 1 4 tcp 1040 ------- 2 1.0 3.0 25 63
- 0.379392 1 4 tcp 1040 ------- 2 1.0 3.0 25 63
+ 0.379392 1 4 tcp 1040 ------- 2 1.0 3.0 26 64
r 0.380256 1 4 tcp 1040 ------- 2 1.0 3.0 15 52
+ 0.380256 4 3 tcp 1040 ------- 2 1.0 3.0 15 52
- 0.380256 4 3 tcp 1040 ------- 2 1.0 3.0 15 52
- 0.381056 1 4 tcp 1040 ------- 2 1.0 3.0 26 64
- 0.381448 4 2 tcp 1040 ------- 1 0.0 2.0 11 45
r 0.38192 1 4 tcp 1040 ------- 2 1.0 3.0 16 53
+ 0.38192 4 3 tcp 1040 ------- 2 1.0 3.0 16 53
r 0.383552 4 1 ack 40 ------- 2 3.0 1.0 13 48
+ 0.383552 1 4 tcp 1040 ------- 2 1.0 3.0 27 65
- 0.383552 1 4 tcp 1040 ------- 2 1.0 3.0 27 65
+ 0.383552 1 4 tcp 1040 ------- 2 1.0 3.0 28 66
r 0.384416 1 4 tcp 1040 ------- 2 1.0 3.0 17 54
+ 0.384416 4 3 tcp 1040 ------- 2 1.0 3.0 17 54
- 0.384416 4 3 tcp 1040 ------- 2 1.0 3.0 16 53
r 0.384808 4 2 tcp 1040 ------- 1 0.0 2.0 8 38
+ 0.384808 2 4 ack 40 ------- 1 2.0 0.0 8 67
- 0.384808 2 4 ack 40 ------- 1 2.0 0.0 8 67
- 0.385216 1 4 tcp 1040 ------- 2 1.0 3.0 28 66
r 0.38608 1 4 tcp 1040 ------- 2 1.0 3.0 18 55
+ 0.38608 4 3 tcp 1040 ------- 2 1.0 3.0 18 55
r 0.387712 4 1 ack 40 ------- 2 3.0 1.0 14 51
+ 0.387712 1 4 tcp 1040 ------- 2 1.0 3.0 29 68
- 0.387712 1 4 tcp 1040 ------- 2 1.0 3.0 29 68
+ 0.387712 1 4 tcp 1040 ------- 2 1.0 3.0 30 69
r 0.388576 1 4 tcp 1040 ------- 2 1.0 3.0 19 56
+ 0.388576 4 3 tcp 1040 ------- 2 1.0 3.0 19 56
- 0.388576 4 3 tcp 1040 ------- 2 1.0 3.0 17 54
- 0.389376 1 4 tcp 1040 ------- 2 1.0 3.0 30 69
- 0.389768 4 2 tcp 1040 ------- 1 0.0 2.0 12 46
r 0.39024 1 4 tcp 1040 ------- 2 1.0 3.0 20 57
+ 0.39024 4 3 tcp 1040 ------- 2 1.0 3.0 20 57
r 0.392736 1 4 tcp 1040 ------- 2 1.0 3.0 21 58
+ 0.392736 4 3 tcp 1040 ------- 2 1.0 3.0 21 58
- 0.392736 4 3 tcp 1040 ------- 2 1.0 3.0 18 55
r 0.393128 4 2 tcp 1040 ------- 1 0.0 2.0 9 41
+ 0.393128 2 4 ack 40 ------- 1 2.0 0.0 9 70
- 0.393128 2 4 ack 40 ------- 1 2.0 0.0 9 70
r 0.3944 1 4 tcp 1040 ------- 2 1.0 3.0 22 59
+ 0.3944 4 3 tcp 1040 ------- 2 1.0 3.0 22 59
r 0.394416 4 3 tcp 1040 ------- 2 1.0 3.0 15 52
+ 0.394416 3 4 ack 40 ------- 2 3.0 1.0 15 71
- 0.394416 3 4 ack 40 ------- 2 3.0 1.0 15 71
r 0.396808 2 4 ack 40 ------- 1 2.0 0.0 7 62
+ 0.396808 4 0 ack 40 ------- 1 2.0 0.0 7 62
- 0.396808 4 0 ack 40 ------- 1 2.0 0.0 7 62
r 0.396896 1 4 tcp 1040 ------- 2 1.0 3.0 23 60
+ 0.396896 4 3 tcp 1040 ------- 2 1.0 3.0 23 60
- 0.396896 4 3 tcp 1040 ------- 2 1.0 3.0 19 56
- 0.398088 4 2 tcp 1040 ------- 1 0.0 2.0 13 49
r 0.39856 1 4 tcp 1040 ------- 2 1.0 3.0 24 61
+ 0.39856 4 3 tcp 1040 ------- 2 1.0 3.0 24 61
r 0.398576 4 3 tcp 1040 ------- 2 1.0 3.0 16 53
+ 0.398576 3 4 ack 40 ------- 2 3.0 1.0 16 72
- 0.398576 3 4 ack 40 ------- 2 3.0 1.0 16 72
r 0.401056 1 4 tcp 1040 ------- 2 1.0 3.0 25 63
+ 0.401056 4 3 tcp 1040 ------- 2 1.0 3.0 25 63
- 0.401056 4 3 tcp 1040 ------- 2 1.0 3.0 20 57
r 0.401448 4 2 tcp 1040 ------- 1 0.0 2.0 10 42
+ 0.401448 2 4 ack 40 ------- 1 2.0 0.0 10 73
- 0.401448 2 4 ack 40 ------- 1 2.0 0.0 10 73
r 0.40272 1 4 tcp 1040 ------- 2 1.0 3.0 26 64
+ 0.40272 4 3 tcp 1040 ------- 2 1.0 3.0 26 64
r 0.402736 4 3 tcp 1040 ------- 2 1.0 3.0 17 54
+ 0.402736 3 4 ack 40 ------- 2 3.0 1.0 17 74
- 0.402736 3 4 ack 40 ------- 2 3.0 1.0 17 74
r 0.404576 3 4 ack 40 ------- 2 3.0 1.0 15 71
+ 0.404576 4 1 ack 40 ------- 2 3.0 1.0 15 71
- 0.404576 4 1 ack 40 ------- 2 3.0 1.0 15 71
r 0.405128 2 4 ack 40 ------- 1 2.0 0.0 8 67
+ 0.405128 4 0 ack 40 ------- 1 2.0 0.0 8 67
- 0.405128 4 0 ack 40 ------- 1 2.0 0.0 8 67
r 0.405216 1 4 tcp 1040 ------- 2 1.0 3.0 27 65
+ 0.405216 4 3 tcp 1040 ------- 2 1.0 3.0 27 65
- 0.405216 4 3 tcp 1040 ------- 2 1.0 3.0 21 58
- 0.406408 4 2 tcp 1040 ------- 1 0.0 2.0 14 50
r 0.40688 1 4 tcp 1040 ------- 2 1.0 3.0 28 66
+ 0.40688 4 3 tcp 1040 ------- 2 1.0 3.0 28 66
r 0.406896 4 3 tcp 1040 ------- 2 1.0 3.0 18 55
+ 0.406896 3 4 ack 40 ------- 2 3.0 1.0 18 75
- 0.406896 3 4 ack 40 ------- 2 3.0 1.0 18 75
r 0.408736 3 4 ack 40 ------- 2 3.0 1.0 16 72
+ 0.408736 4 1 ack 40 ------- 2 3.0 1.0 16 72
- 0.408736 4 1 ack 40 ------- 2 3.0 1.0 16 72
r 0.409376 1 4 tcp 1040 ------- 2 1.0 3.0 29 68
+ 0.409376 4 3 tcp 1040 ------- 2 1.0 3.0 29 68
- 0.409376 4 3 tcp 1040 ------- 2 1.0 3.0 22 59
r 0.409768 4 2 tcp 1040 ------- 1 0.0 2.0 11 45
+ 0.409768 2 4 ack 40 ------- 1 2.0 0.0 11 76
- 0.409768 2 4 ack 40 ------- 1 2.0 0.0 11 76
r 0.41104 1 4 tcp 1040 ------- 2 1.0 3.0 30 69
+ 0.41104 4 3 tcp 1040 ------- 2 1.0 3.0 30 69
r 0.411056 4 3 tcp 1040 ------- 2 1.0 3.0 19 56
+ 0.411056 3 4 ack 40 ------- 2 3.0 1.0 19 77
- 0.411056 3 4 ack 40 ------- 2 3.0 1.0 19 77
r 0.411872 4 0 ack 40 ------- 1 2.0 0.0 7 62
+ 0.411872 0 4 tcp 1040 ------- 1 0.0 2.0 15 78
- 0.411872 0 4 tcp 1040 ------- 1 0.0 2.0 15 78
+ 0.411872 0 4 tcp 1040 ------- 1 0.0 2.0 16 79
r 0.412896 3 4 ack 40 ------- 2 3.0 1.0 17 74
+ 0.412896 4 1 ack 40 ------- 2 3.0 1.0 17 74
- 0.412896 4 1 ack 40 ------- 2 3.0 1.0 17 74
r 0.413448 2 4 ack 40 ------- 1 2.0 0.0 9 70
+ 0.413448 4 0 ack 40 ------- 1 2.0 0.0 9 70
- 0.413448 4 0 ack 40 ------- 1 2.0 0.0 9 70
- 0.413536 4 3 tcp 1040 ------- 2 1.0 3.0 23 60
- 0.413536 0 4 tcp 1040 ------- 1 0.0 2.0 16 79
r 0.415216 4 3 tcp 1040 ------- 2 1.0 3.0 20 57
+ 0.415216 3 4 ack 40 ------- 2 3.0 1.0 20 80
- 0.415216 3 4 ack 40 ------- 2 3.0 1.0 20 80
r 0.417056 3 4 ack 40 ------- 2 3.0 1.0 18 75
+ 0.417056 4 1 ack 40 ------- 2 3.0 1.0 18 75
- 0.417056 4 1 ack 40 ------- 2 3.0 1.0 18 75
- 0.417696 4 3 tcp 1040 ------- 2 1.0 3.0 24 61
r 0.418088 4 2 tcp 1040 ------- 1 0.0 2.0 12 46
+ 0.418088 2 4 ack 40 ------- 1 2.0 0.0 12 81
- 0.418088 2 4 ack 40 ------- 1 2.0 0.0 12 81
r 0.419376 4 3 tcp 1040 ------- 2 1.0 3.0 21 58
+ 0.419376 3 4 ack 40 ------- 2 3.0 1.0 21 82
- 0.419376 3 4 ack 40 ------- 2 3.0 1.0 21 82
r 0.420192 4 0 ack 40 ------- 1 2.0 0.0 8 67
+ 0.420192 0 4 tcp 1040 ------- 1 0.0 2.0 17 83
- 0.420192 0 4 tcp 1040 ------- 1 0.0 2.0 17 83
+ 0.420192 0 4 tcp 1040 ------- 1 0.0 2.0 18 84
r 0.421216 3 4 ack 40 ------- 2 3.0 1.0 19 77
+ 0.421216 4 1 ack 40 ------- 2 3.0 1.0 19 77
- 0.421216 4 1 ack 40 ------- 2 3.0 1.0 19 77
r 0.421768 2 4 ack 40 ------- 1 2.0 0.0 10 73
+ 0.421768 4 0 ack 40 ------- 1 2.0 0.0 10 73
- 0.421768 4 0 ack 40 ------- 1 2.0 0.0 10 73
- 0.421856 4 3 tcp 1040 ------- 2 1.0 3.0 25 63
- 0.421856 0 4 tcp 1040 ------- 1 0.0 2.0 18 84
r 0.423536 4 3 tcp 1040 ------- 2 1.0 3.0 22 59
+ 0.423536 3 4 ack 40 ------- 2 3.0 1.0 22 85
- 0.423536 3 4 ack 40 ------- 2 3.0 1.0 22 85
r 0.42464 4 1 ack 40 ------- 2 3.0 1.0 15 71
+ 0.42464 1 4 tcp 1040 ------- 2 1.0 3.0 31 86
- 0.42464 1 4 tcp 1040 ------- 2 1.0 3.0 31 86
+ 0.42464 1 4 tcp 1040 ------- 2 1.0 3.0 32 87
r 0.425376 3 4 ack 40 ------- 2 3.0 1.0 20 80
+ 0.425376 4 1 ack 40 ------- 2 3.0 1.0 20 80
- 0.425376 4 1 ack 40 ------- 2 3.0 1.0 20 80
- 0.426016 4 3 tcp 1040 ------- 2 1.0 3.0 26 64
- 0.426304 1 4 tcp 1040 ------- 2 1.0 3.0 32 87
r 0.426408 4 2 tcp 1040 ------- 1 0.0 2.0 13 49
+ 0.426408 2 4 ack 40 ------- 1 2.0 0.0 13 88
- 0.426408 2 4 ack 40 ------- 1 2.0 0.0 13 88
r 0.427696 4 3 tcp 1040 ------- 2 1.0 3.0 23 60
+ 0.427696 3 4 ack 40 ------- 2 3.0 1.0 23 89
- 0.427696 3 4 ack 40 ------- 2 3.0 1.0 23 89
r 0.428512 4 0 ack 40 ------- 1 2.0 0.0 9 70
+ 0.428512 0 4 tcp 1040 ------- 1 0.0 2.0 19 90
- 0.428512 0 4 tcp 1040 ------- 1 0.0 2.0 19 90
+ 0.428512 0 4 tcp 1040 ------- 1 0.0 2.0 20 91
r 0.428536 0 4 tcp 1040 ------- 1 0.0 2.0 15 78
+ 0.428536 4 2 tcp 1040 ------- 1 0.0 2.0 15 78
- 0.428536 4 2 tcp 1040 ------- 1 0.0 2.0 15 78
r 0.4288 4 1 ack 40 ------- 2 3.0 1.0 16 72
+ 0.4288 1 4 tcp 1040 ------- 2 1.0 3.0 33 92
- 0.4288 1 4 tcp 1040 ------- 2 1.0 3.0 33 92
+ 0.4288 1 4 tcp 1040 ------- 2 1.0 3.0 34 93
r 0.429536 3 4 ack 40 ------- 2 3.0 1.0 21 82
+ 0.429536 4 1 ack 40 ------- 2 3.0 1.0 21 82
- 0.429536 4 1 ack 40 ------- 2 3.0 1.0 21 82
r 0.430088 2 4 ack 40 ------- 1 2.0 0.0 11 76
+ 0.430088 4 0 ack 40 ------- 1 2.0 0.0 11 76
- 0.430088 4 0 ack 40 ------- 1 2.0 0.0 11 76
- 0.430176 4 3 tcp 1040 ------- 2 1.0 3.0 27 65
- 0.430176 0 4 tcp 1040 ------- 1 0.0 2.0 20 91
r 0.4302 0 4 tcp 1040 ------- 1 0.0 2.0 16 79
+ 0.4302 4 2 tcp 1040 ------- 1 0.0 2.0 16 79
- 0.430464 1 4 tcp 1040 ------- 2 1.0 3.0 34 93
r 0.431856 4 3 tcp 1040 ------- 2 1.0 3.0 24 61
+ 0.431856 3 4 ack 40 ------- 2 3.0 1.0 24 94
- 0.431856 3 4 ack 40 ------- 2 3.0 1.0 24 94
r 0.43296 4 1 ack 40 ------- 2 3.0 1.0 17 74
+ 0.43296 1 4 tcp 1040 ------- 2 1.0 3.0 35 95
- 0.43296 1 4 tcp 1040 ------- 2 1.0 3.0 35 95
+ 0.43296 1 4 tcp 1040 ------- 2 1.0 3.0 36 96
r 0.433696 3 4 ack 40 ------- 2 3.0 1.0 22 85
+ 0.433696 4 1 ack 40 ------- 2 3.0 1.0 22 85
- 0.433696 4 1 ack 40 ------- 2 3.0 1.0 22 85
- 0.434336 4 3 tcp 1040 ------- 2 1.0 3.0 28 66
- 0.434624 1 4 tcp 1040 ------- 2 1.0 3.0 36 96
r 0.434728 4 2 tcp 1040 ------- 1 0.0 2.0 14 50
+ 0.434728 2 4 ack 40 ------- 1 2.0 0.0 14 97
- 0.434728 2 4 ack 40 ------- 1 2.0 0.0 14 97
r 0.436016 4 3 tcp 1040 ------- 2 1.0 3.0 25 63
+ 0.436016 3 4 ack 40 ------- 2 3.0 1.0 25 98
- 0.436016 3 4 ack 40 ------- 2 3.0 1.0 25 98
r 0.436832 4 0 ack 40 ------- 1 2.0 0.0 10 73
+ 0.436832 0 4 tcp 1040 ------- 1 0.0 2.0 21 99
- 0.436832 0 4 tcp 1040 ------- 1 0.0 2.0 21 99
+ 0.436832 0 4 tcp 1040 ------- 1 0.0 2.0 22 100
r 0.436856 0 4 tcp 1040 ------- 1 0.0 2.0 17 83
+ 0.436856 4 2 tcp 1040 ------- 1 0.0 2.0 17 83
- 0.436856 4 2 tcp 1040 ------- 1 0.0 2.0 16 79
r 0.43712 4 1 ack 40 ------- 2 3.0 1.0 18 75
+ 0.43712 1 4 tcp 1040 ------- 2 1.0 3.0 37 101
- 0.43712 1 4 tcp 1040 ------- 2 1.0 3.0 37 101
+ 0.43712 1 4 tcp 1040 ------- 2 1.0 3.0 38 102
r 0.437856 3 4 ack 40 ------- 2 3.0 1.0 23 89
+ 0.437856 4 1 ack 40 ------- 2 3.0 1.0 23 89
- 0.437856 4 1 ack 40 ------- 2 3.0 1.0 23 89
r 0.438408 2 4 ack 40 ------- 1 2.0 0.0 12 81
+ 0.438408 4 0 ack 40 ------- 1 2.0 0.0 12 81
- 0.438408 4 0 ack 40 ------- 1 2.0 0.0 12 81
- 0.438496 4 3 tcp 1040 ------- 2 1.0 3.0 29 68
- 0.438496 0 4 tcp 1040 ------- 1 0.0 2.0 22 100
r 0.43852 0 4 tcp 1040 ------- 1 0.0 2.0 18 84
+ 0.43852 4 2 tcp 1040 ------- 1 0.0 2.0 18 84
- 0.438784 1 4 tcp 1040 ------- 2 1.0 3.0 38 102
r 0.440176 4 3 tcp 1040 ------- 2 1.0 3.0 26 64
+ 0.440176 3 4 ack 40 ------- 2 3.0 1.0 26 103
- 0.440176 3 4 ack 40 ------- 2 3.0 1.0 26 103
r 0.44128 4 1 ack 40 ------- 2 3.0 1.0 19 77
+ 0.44128 1 4 tcp 1040 ------- 2 1.0 3.0 39 104
- 0.44128 1 4 tcp 1040 ------- 2 1.0 3.0 39 104
r 0.442016 3 4 ack 40 ------- 2 3.0 1.0 24 94
+ 0.442016 4 1 ack 40 ------- 2 3.0 1.0 24 94
- 0.442016 4 1 ack 40 ------- 2 3.0 1.0 24 94
- 0.442656 4 3 tcp 1040 ------- 2 1.0 3.0 30 69
r 0.444336 4 3 tcp 1040 ------- 2 1.0 3.0 27 65
+ 0.444336 3 4 ack 40 ------- 2 3.0 1.0 27 105
- 0.444336 3 4 ack 40 ------- 2 3.0 1.0 27 105
r 0.445152 4 0 ack 40 ------- 1 2.0 0.0 11 76
+ 0.445152 0 4 tcp 1040 ------- 1 0.0 2.0 23 106
- 0.445152 0 4 tcp 1040 ------- 1 0.0 2.0 23 106
+ 0.445152 0 4 tcp 1040 ------- 1 0.0 2.0 24 107
r 0.445176 0 4 tcp 1040 ------- 1 0.0 2.0 19 90
+ 0.445176 4 2 tcp 1040 ------- 1 0.0 2.0 19 90
- 0.445176 4 2 tcp 1040 ------- 1 0.0 2.0 17 83
r 0.44544 4 1 ack 40 ------- 2 3.0 1.0 20 80
+ 0.44544 1 4 tcp 1040 ------- 2 1.0 3.0 40 108
- 0.44544 1 4 tcp 1040 ------- 2 1.0 3.0 40 108
r 0.446176 3 4 ack 40 ------- 2 3.0 1.0 25 98
+ 0.446176 4 1 ack 40 ------- 2 3.0 1.0 25 98
- 0.446176 4 1 ack 40 ------- 2 3.0 1.0 25 98
r 0.446304 1 4 tcp 1040 ------- 2 1.0 3.0 31 86
+ 0.446304 4 3 tcp 1040 ------- 2 1.0 3.0 31 86
r 0.446728 2 4 ack 40 ------- 1 2.0 0.0 13 88
+ 0.446728 4 0 ack 40 ------- 1 2.0 0.0 13 88
- 0.446728 4 0 ack 40 ------- 1 2.0 0.0 13 88
- 0.446816 4 3 tcp 1040 ------- 2 1.0 3.0 31 86
- 0.446816 0 4 tcp 1040 ------- 1 0.0 2.0 24 107
r 0.44684 0 4 tcp 1040 ------- 1 0.0 2.0 20 91
+ 0.44684 4 2 tcp 1040 ------- 1 0.0 2.0 20 91
r 0.447968 1 4 tcp 1040 ------- 2 1.0 3.0 32 87
+ 0.447968 4 3 tcp 1040 ------- 2 1.0 3.0 32 87
r 0.448496 4 3 tcp 1040 ------- 2 1.0 3.0 28 66
+ 0.448496 3 4 ack 40 ------- 2 3.0 1.0 28 109
- 0.448496 3 4 ack 40 ------- 2 3.0 1.0 28 109
r 0.4496 4 1 ack 40 ------- 2 3.0 1.0 21 82
+ 0.4496 1 4 tcp 1040 ------- 2 1.0 3.0 41 110
- 0.4496 1 4 tcp 1040 ------- 2 1.0 3.0 41 110
r 0.450336 3 4 ack 40 ------- 2 3.0 1.0 26 103
+ 0.450336 4 1 ack 40 ------- 2 3.0 1.0 26 103
- 0.450336 4 1 ack 40 ------- 2 3.0 1.0 26 103
r 0.450464 1 4 tcp 1040 ------- 2 1.0 3.0 33 92
+ 0.450464 4 3 tcp 1040 ------- 2 1.0 3.0 33 92
- 0.450976 4 3 tcp 1040 ------- 2 1.0 3.0 32 87
r 0.452128 1 4 tcp 1040 ------- 2 1.0 3.0 34 93
+ 0.452128 4 3 tcp 1040 ------- 2 1.0 3.0 34 93
r 0.452656 4 3 tcp 1040 ------- 2 1.0 3.0 29 68
+ 0.452656 3 4 ack 40 ------- 2 3.0 1.0 29 111
- 0.452656 3 4 ack 40 ------- 2 3.0 1.0 29 111
r 0.453472 4 0 ack 40 ------- 1 2.0 0.0 12 81
+ 0.453472 0 4 tcp 1040 ------- 1 0.0 2.0 25 112
- 0.453472 0 4 tcp 1040 ------- 1 0.0 2.0 25 112
+ 0.453472 0 4 tcp 1040 ------- 1 0.0 2.0 26 113
r 0.453496 0 4 tcp 1040 ------- 1 0.0 2.0 21 99
+ 0.453496 4 2 tcp 1040 ------- 1 0.0 2.0 21 99
- 0.453496 4 2 tcp 1040 ------- 1 0.0 2.0 18 84
r 0.45376 4 1 ack 40 ------- 2 3.0 1.0 22 85
+ 0.45376 1 4 tcp 1040 ------- 2 1.0 3.0 42 114
- 0.45376 1 4 tcp 1040 ------- 2 1.0 3.0 42 114
r 0.454496 3 4 ack 40 ------- 2 3.0 1.0 27 105
+ 0.454496 4 1 ack 40 ------- 2 3.0 1.0 27 105
- 0.454496 4 1 ack 40 ------- 2 3.0 1.0 27 105
r 0.454624 1 4 tcp 1040 ------- 2 1.0 3.0 35 95
+ 0.454624 4 3 tcp 1040 ------- 2 1.0 3.0 35 95
r 0.455048 2 4 ack 40 ------- 1 2.0 0.0 14 97
+ 0.455048 4 0 ack 40 ------- 1 2.0 0.0 14 97
- 0.455048 4 0 ack 40 ------- 1 2.0 0.0 14 97
- 0.455136 4 3 tcp 1040 ------- 2 1.0 3.0 33 92
- 0.455136 0 4 tcp 1040 ------- 1 0.0 2.0 26 113
r 0.45516 0 4 tcp 1040 ------- 1 0.0 2.0 22 100
+ 0.45516 4 2 tcp 1040 ------- 1 0.0 2.0 22 100
r 0.456288 1 4 tcp 1040 ------- 2 1.0 3.0 36 96
+ 0.456288 4 3 tcp 1040 ------- 2 1.0 3.0 36 96
r 0.456816 4 3 tcp 1040 ------- 2 1.0 3.0 30 69
+ 0.456816 3 4 ack 40 ------- 2 3.0 1.0 30 115
- 0.456816 3 4 ack 40 ------- 2 3.0 1.0 30 115
r 0.456856 4 2 tcp 1040 ------- 1 0.0 2.0 15 78
+ 0.456856 2 4 ack 40 ------- 1 2.0 0.0 15 116
- 0.456856 2 4 ack 40 ------- 1 2.0 0.0 15 116
r 0.45792 4 1 ack 40 ------- 2 3.0 1.0 23 89
+ 0.45792 1 4 tcp 1040 ------- 2 1.0 3.0 43 117
- 0.45792 1 4 tcp 1040 ------- 2 1.0 3.0 43 117
r 0.458656 3 4 ack 40 ------- 2 3.0 1.0 28 109
+ 0.458656 4 1 ack 40 ------- 2 3.0 1.0 28 109
- 0.458656 4 1 ack 40 ------- 2 3.0 1.0 28 109
r 0.458784 1 4 tcp 1040 ------- 2 1.0 3.0 37 101
+ 0.458784 4 3 tcp 1040 ------- 2 1.0 3.0 37 101
- 0.459296 4 3 tcp 1040 ------- 2 1.0 3.0 34 93
r 0.460448 1 4 tcp 1040 ------- 2 1.0 3.0 38 102
+ 0.460448 4 3 tcp 1040 ------- 2 1.0 3.0 38 102
r 0.460976 4 3 tcp 1040 ------- 2 1.0 3.0 31 86
+ 0.460976 3 4 ack 40 ------- 2 3.0 1.0 31 118
- 0.460976 3 4 ack 40 ------- 2 3.0 1.0 31 118
r 0.461792 4 0 ack 40 ------- 1 2.0 0.0 13 88
+ 0.461792 0 4 tcp 1040 ------- 1 0.0 2.0 27 119
- 0.461792 0 4 tcp 1040 ------- 1 0.0 2.0 27 119
+ 0.461792 0 4 tcp 1040 ------- 1 0.0 2.0 28 120
r 0.461816 0 4 tcp 1040 ------- 1 0.0 2.0 23 106
+ 0.461816 4 2 tcp 1040 ------- 1 0.0 2.0 23 106
- 0.461816 4 2 tcp 1040 ------- 1 0.0 2.0 19 90
r 0.46208 4 1 ack 40 ------- 2 3.0 1.0 24 94
+ 0.46208 1 4 tcp 1040 ------- 2 1.0 3.0 44 121
- 0.46208 1 4 tcp 1040 ------- 2 1.0 3.0 44 121
r 0.462816 3 4 ack 40 ------- 2 3.0 1.0 29 111
+ 0.462816 4 1 ack 40 ------- 2 3.0 1.0 29 111