V -t * -v 1.0a5 -a 0
A -t * -n 1 -p 0 -o 0x7fffffff -c 30 -a 1
A -t * -h 1 -m 1073741823 -s 0
c -t * -i 1 -n Blue
c -t * -i 2 -n Red
n -t * -a 4 -s 4 -S UP -v circle -c black -i black
n -t * -a 0 -s 0 -S UP -v circle -c black -i black
n -t * -a 1 -s 1 -S UP -v circle -c black -i black
n -t * -a 2 -s 2 -S UP -v circle -c black -i black
n -t * -a 3 -s 3 -S UP -v circle -c black -i black
l -t * -s 0 -d 4 -S UP -r 5000000 -D 0.014999999999999999 -c black -o right
l -t * -s 1 -d 4 -S UP -r 5000000 -D 0.02 -c black -o down
l -t * -s 3 -d 4 -S UP -r 2000000 -D 0.01 -c black -o up
l -t * -s 2 -d 4 -S UP -r 1000000 -D 0.02 -c black -o left
+ -t 0.1 -s 0 -d 4 -p tcp -e 40 -c 1 -i 0 -a 1 -x {0.0 2.0 0 ------- null}
- -t 0.1 -s 0 -d 4 -p tcp -e 40 -c 1 -i 0 -a 1 -x {0.0 2.0 0 ------- null}
h -t 0.1 -s 0 -d 4 -p tcp -e 40 -c 1 -i 0 -a 1 -x {0.0 2.0 -1 ------- null}
+ -t 0.1 -s 1 -d 4 -p tcp -e 40 -c 2 -i 1 -a 2 -x {1.0 3.0 0 ------- null}
- -t 0.1 -s 1 -d 4 -p tcp -e 40 -c 2 -i 1 -a 2 -x {1.0 3.0 0 ------- null}
h -t 0.1 -s 1 -d 4 -p tcp -e 40 -c 2 -i 1 -a 2 -x {1.0 3.0 -1 ------- null}
r -t 0.115064 -s 0 -d 4 -p tcp -e 40 -c 1 -i 0 -a 1 -x {0.0 2.0 0 ------- null}
+ -t 0.115064 -s 4 -d 2 -p tcp -e 40 -c 1 -i 0 -a 1 -x {0.0 2.0 0 ------- null}
- -t 0.115064 -s 4 -d 2 -p tcp -e 40 -c 1 -i 0 -a 1 -x {0.0 2.0 0 ------- null}
h -t 0.115064 -s 4 -d 2 -p tcp -e 40 -c 1 -i 0 -a 1 -x {0.0 2.0 -1 ------- null}
r -t 0.120064 -s 1 -d 4 -p tcp -e 40 -c 2 -i 1 -a 2 -x {1.0 3.0 0 ------- null}
+ -t 0.120064 -s 4 -d 3 -p tcp -e 40 -c 2 -i 1 -a 2 -x {1.0 3.0 0 ------- null}
- -t 0.120064 -s 4 -d 3 -p tcp -e 40 -c 2 -i 1 -a 2 -x {1.0 3.0 0 ------- null}
h -t 0.120064 -s 4 -d 3 -p tcp -e 40 -c 2 -i 1 -a 2 -x {1.0 3.0 -1 ------- null}
r -t 0.130224 -s 4 -d 3 -p tcp -e 40 -c 2 -i 1 -a 2 -x {1.0 3.0 0 ------- null}
+ -t 0.130224 -s 3 -d 4 -p ack -e 40 -c 2 -i 2 -a 2 -x {3.0 1.0 0 ------- null}
- -t 0.130224 -s 3 -d 4 -p ack -e 40 -c 2 -i 2 -a 2 -x {3.0 1.0 0 ------- null}
h -t 0.130224 -s 3 -d 4 -p ack -e 40 -c 2 -i 2 -a 2 -x {3.0 1.0 -1 ------- null}
r -t 0.135384 -s 4 -d 2 -p tcp -e 40 -c 1 -i 0 -a 1 -x {0.0 2.0 0 ------- null}
+ -t 0.135384 -s 2 -d 4 -p ack -e 40 -c 1 -i 3 -a 1 -x {2.0 0.0 0 ------- null}
- -t 0.135384 -s 2 -d 4 -p ack -e 40 -c 1 -i 3 -a 1 -x {2.0 0.0 0 ------- null}
h -t 0.135384 -s 2 -d 4 -p ack -e 40 -c 1 -i 3 -a 1 -x {2.0 0.0 -1 ------- null}
r -t 0.140384 -s 3 -d 4 -p ack -e 40 -c 2 -i 2 -a 2 -x {3.0 1.0 0 ------- null}
+ -t 0.140384 -s 4 -d 1 -p ack -e 40 -c 2 -i 2 -a 2 -x {3.0 1.0 0 ------- null}
- -t 0.140384 -s 4 -d 1 -p ack -e 40 -c 2 -i 2 -a 2 -x {3.0 1.0 0 ------- null}
h -t 0.140384 -s 4 -d 1 -p ack -e 40 -c 2 -i 2 -a 2 -x {3.0 1.0 -1 ------- null}
r -t 0.155704 -s 2 -d 4 -p ack -e 40 -c 1 -i 3 -a 1 -x {2.0 0.0 0 ------- null}
+ -t 0.155704 -s 4 -d 0 -p ack -e 40 -c 1 -i 3 -a 1 -x {2.0 0.0 0 ------- null}
- -t 0.155704 -s 4 -d 0 -p ack -e 40 -c 1 -i 3 -a 1 -x {2.0 0.0 0 ------- null}
h -t 0.155704 -s 4 -d 0 -p ack -e 40 -c 1 -i 3 -a 1 -x {2.0 0.0 -1 ------- null}
r -t 0.160448 -s 4 -d 1 -p ack -e 40 -c 2 -i 2 -a 2 -x {3.0 1.0 0 ------- null}
+ -t 0.160448 -s 1 -d 4 -p tcp -e 1040 -c 2 -i 4 -a 2 -x {1.0 3.0 1 ------- null}
- -t 0.160448 -s 1 -d 4 -p tcp -e 1040 -c 2 -i 4 -a 2 -x {1.0 3.0 1 ------- null}
h -t 0.160448 -s 1 -d 4 -p tcp -e 1040 -c 2 -i 4 -a 2 -x {1.0 3.0 -1 ------- null}
+ -t 0.160448 -s 1 -d 4 -p tcp -e 1040 -c 2 -i 5 -a 2 -x {1.0 3.0 2 ------- null}
- -t 0.162112 -s 1 -d 4 -p tcp -e 1040 -c 2 -i 5 -a 2 -x {1.0 3.0 2 ------- null}
h -t 0.162112 -s 1 -d 4 -p tcp -e 1040 -c 2 -i 5 -a 2 -x {1.0 3.0 -1 ------- null}
r -t 0.170768 -s 4 -d 0 -p ack -e 40 -c 1 -i 3 -a 1 -x {2.0 0.0 0 ------- null}
+ -t 0.170768 -s 0 -d 4 -p tcp -e 1040 -c 1 -i 6 -a 1 -x {0.0 2.0 1 ------- null}
- -t 0.170768 -s 0 -d 4 -p tcp -e 1040 -c 1 -i 6 -a 1 -x {0.0 2.0 1 ------- null}
h -t 0.170768 -s 0 -d 4 -p tcp -e 1040 -c 1 -i 6 -a 1 -x {0.0 2.0 -1 ------- null}
+ -t 0.170768 -s 0 -d 4 -p tcp -e 1040 -c 1 -i 7 -a 1 -x {0.0 2.0 2 ------- null}
- -t 0.172432 -s 0 -d 4 -p tcp -e 1040 -c 1 -i 7 -a 1 -x {0.0 2.0 2 ------- null}
h -t 0.172432 -s 0 -d 4 -p tcp -e 1040 -c 1 -i 7 -a 1 -x {0.0 2.0 -1 ------- null}
r -t 0.182112 -s 1 -d 4 -p tcp -e 1040 -c 2 -i 4 -a 2 -x {1.0 3.0 1 ------- null}
+ -t 0.182112 -s 4 -d 3 -p tcp -e 1040 -c 2 -i 4 -a 2 -x {1.0 3.0 1 ------- null}
- -t 0.182112 -s 4 -d 3 -p tcp -e 1040 -c 2 -i 4 -a 2 -x {1.0 3.0 1 ------- null}
h -t 0.182112 -s 4 -d 3 -p tcp -e 1040 -c 2 -i 4 -a 2 -x {1.0 3.0 -1 ------- null}
r -t 0.183776 -s 1 -d 4 -p tcp -e 1040 -c 2 -i 5 -a 2 -x {1.0 3.0 2 ------- null}
+ -t 0.183776 -s 4 -d 3 -p tcp -e 1040 -c 2 -i 5 -a 2 -x {1.0 3.0 2 ------- null}
- -t 0.186272 -s 4 -d 3 -p tcp -e 1040 -c 2 -i 5 -a 2 -x {1.0 3.0 2 ------- null}
h -t 0.186272 -s 4 -d 3 -p tcp -e 1040 -c 2 -i 5 -a 2 -x {1.0 3.0 -1 ------- null}
r -t 0.187432 -s 0 -d 4 -p tcp -e 1040 -c 1 -i 6 -a 1 -x {0.0 2.0 1 ------- null}
+ -t 0.187432 -s 4 -d 2 -p tcp -e 1040 -c 1 -i 6 -a 1 -x {0.0 2.0 1 ------- null}
- -t 0.187432 -s 4 -d 2 -p tcp -e 1040 -c 1 -i 6 -a 1 -x {0.0 2.0 1 ------- null}
h -t 0.187432 -s 4 -d 2 -p tcp -e 1040 -c 1 -i 6 -a 1 -x {0.0 2.0 -1 ------- null}
r -t 0.189096 -s 0 -d 4 -p tcp -e 1040 -c 1 -i 7 -a 1 -x {0.0 2.0 2 ------- null}
+ -t 0.189096 -s 4 -d 2 -p tcp -e 1040 -c 1 -i 7 -a 1 -x {0.0 2.0 2 ------- null}
- -t 0.195752 -s 4 -d 2 -p tcp -e 1040 -c 1 -i 7 -a 1 -x {0.0 2.0 2 ------- null}
h -t 0.195752 -s 4 -d 2 -p tcp -e 1040 -c 1 -i 7 -a 1 -x {0.0 2.0 -1 ------- null}
r -t 0.196272 -s 4 -d 3 -p tcp -e 1040 -c 2 -i 4 -a 2 -x {1.0 3.0 1 ------- null}
+ -t 0.196272 -s 3 -d 4 -p ack -e 40 -c 2 -i 8 -a 2 -x {3.0 1.0 1 ------- null}
- -t 0.196272 -s 3 -d 4 -p ack -e 40 -c 2 -i 8 -a 2 -x {3.0 1.0 1 ------- null}
h -t 0.196272 -s 3 -d 4 -p ack -e 40 -c 2 -i 8 -a 2 -x {3.0 1.0 -1 ------- null}
r -t 0.200432 -s 4 -d 3 -p tcp -e 1040 -c 2 -i 5 -a 2 -x {1.0 3.0 2 ------- null}
+ -t 0.200432 -s 3 -d 4 -p ack -e 40 -c 2 -i 9 -a 2 -x {3.0 1.0 2 ------- null}
- -t 0.200432 -s 3 -d 4 -p ack -e 40 -c 2 -i 9 -a 2 -x {3.0 1.0 2 ------- null}
h -t 0.200432 -s 3 -d 4 -p ack -e 40 -c 2 -i 9 -a 2 -x {3.0 1.0 -1 ------- null}
r -t 0.206432 -s 3 -d 4 -p ack -e 40 -c 2 -i 8 -a 2 -x {3.0 1.0 1 ------- null}
+ -t 0.206432 -s 4 -d 1 -p ack -e 40 -c 2 -i 8 -a 2 -x {3.0 1.0 1 ------- null}
- -t 0.206432 -s 4 -d 1 -p ack -e 40 -c 2 -i 8 -a 2 -x {3.0 1.0 1 ------- null}
h -t 0.206432 -s 4 -d 1 -p ack -e 40 -c 2 -i 8 -a 2 -x {3.0 1.0 -1 ------- null}
r -t 0.210592 -s 3 -d 4 -p ack -e 40 -c 2 -i 9 -a 2 -x {3.0 1.0 2 ------- null}
+ -t 0.210592 -s 4 -d 1 -p ack -e 40 -c 2 -i 9 -a 2 -x {3.0 1.0 2 ------- null}
- -t 0.210592 -s 4 -d 1 -p ack -e 40 -c 2 -i 9 -a 2 -x {3.0 1.0 2 ------- null}
h -t 0.210592 -s 4 -d 1 -p ack -e 40 -c 2 -i 9 -a 2 -x {3.0 1.0 -1 ------- null}
r -t 0.215752 -s 4 -d 2 -p tcp -e 1040 -c 1 -i 6 -a 1 -x {0.0 2.0 1 ------- null}
+ -t 0.215752 -s 2 -d 4 -p ack -e 40 -c 1 -i 10 -a 1 -x {2.0 0.0 1 ------- null}
- -t 0.215752 -s 2 -d 4 -p ack -e 40 -c 1 -i 10 -a 1 -x {2.0 0.0 1 ------- null}
h -t 0.215752 -s 2 -d 4 -p ack -e 40 -c 1 -i 10 -a 1 -x {2.0 0.0 -1 ------- null}
r -t 0.224072 -s 4 -d 2 -p tcp -e 1040 -c 1 -i 7 -a 1 -x {0.0 2.0 2 ------- null}
+ -t 0.224072 -s 2 -d 4 -p ack -e 40 -c 1 -i 11 -a 1 -x {2.0 0.0 2 ------- null}
- -t 0.224072 -s 2 -d 4 -p ack -e 40 -c 1 -i 11 -a 1 -x {2.0 0.0 2 ------- null}
h -t 0.224072 -s 2 -d 4 -p ack -e 40 -c 1 -i 11 -a 1 -x {2.0 0.0 -1 ------- null}
r -t 0.226496 -s 4 -d 1 -p ack -e 40 -c 2 -i 8 -a 2 -x {3.0 1.0 1 ------- null}
+ -t 0.226496 -s 1 -d 4 -p tcp -e 1040 -c 2 -i 12 -a 2 -x {1.0 3.0 3 ------- null}
- -t 0.226496 -s 1 -d 4 -p tcp -e 1040 -c 2 -i 12 -a 2 -x {1.0 3.0 3 ------- null}
h -t 0.226496 -s 1 -d 4 -p tcp -e 1040 -c 2 -i 12 -a 2 -x {1.0 3.0 -1 ------- null}
+ -t 0.226496 -s 1 -d 4 -p tcp -e 1040 -c 2 -i 13 -a 2 -x {1.0 3.0 4 ------- null}
- -t 0.22816 -s 1 -d 4 -p tcp -e 1040 -c 2 -i 13 -a 2 -x {1.0 3.0 4 ------- null}
h -t 0.22816 -s 1 -d 4 -p tcp -e 1040 -c 2 -i 13 -a 2 -x {1.0 3.0 -1 ------- null}
r -t 0.230656 -s 4 -d 1 -p ack -e 40 -c 2 -i 9 -a 2 -x {3.0 1.0 2 ------- null}
+ -t 0.230656 -s 1 -d 4 -p tcp -e 1040 -c 2 -i 14 -a 2 -x {1.0 3.0 5 ------- null}
- -t 0.230656 -s 1 -d 4 -p tcp -e 1040 -c 2 -i 14 -a 2 -x {1.0 3.0 5 ------- null}
h -t 0.230656 -s 1 -d 4 -p tcp -e 1040 -c 2 -i 14 -a 2 -x {1.0 3.0 -1 ------- null}
+ -t 0.230656 -s 1 -d 4 -p tcp -e 1040 -c 2 -i 15 -a 2 -x {1.0 3.0 6 ------- null}
- -t 0.23232 -s 1 -d 4 -p tcp -e 1040 -c 2 -i 15 -a 2 -x {1.0 3.0 6 ------- null}
h -t 0.23232 -s 1 -d 4 -p tcp -e 1040 -c 2 -i 15 -a 2 -x {1.0 3.0 -1 ------- null}
r -t 0.236072 -s 2 -d 4 -p ack -e 40 -c 1 -i 10 -a 1 -x {2.0 0.0 1 ------- null}
+ -t 0.236072 -s 4 -d 0 -p ack -e 40 -c 1 -i 10 -a 1 -x {2.0 0.0 1 ------- null}
- -t 0.236072 -s 4 -d 0 -p ack -e 40 -c 1 -i 10 -a 1 -x {2.0 0.0 1 ------- null}
h -t 0.236072 -s 4 -d 0 -p ack -e 40 -c 1 -i 10 -a 1 -x {2.0 0.0 -1 ------- null}
r -t 0.244392 -s 2 -d 4 -p ack -e 40 -c 1 -i 11 -a 1 -x {2.0 0.0 2 ------- null}
+ -t 0.244392 -s 4 -d 0 -p ack -e 40 -c 1 -i 11 -a 1 -x {2.0 0.0 2 ------- null}
- -t 0.244392 -s 4 -d 0 -p ack -e 40 -c 1 -i 11 -a 1 -x {2.0 0.0 2 ------- null}
h -t 0.244392 -s 4 -d 0 -p ack -e 40 -c 1 -i 11 -a 1 -x {2.0 0.0 -1 ------- null}
r -t 0.24816 -s 1 -d 4 -p tcp -e 1040 -c 2 -i 12 -a 2 -x {1.0 3.0 3 ------- null}
+ -t 0.24816 -s 4 -d 3 -p tcp -e 1040 -c 2 -i 12 -a 2 -x {1.0 3.0 3 ------- null}
- -t 0.24816 -s 4 -d 3 -p tcp -e 1040 -c 2 -i 12 -a 2 -x {1.0 3.0 3 ------- null}
h -t 0.24816 -s 4 -d 3 -p tcp -e 1040 -c 2 -i 12 -a 2 -x {1.0 3.0 -1 ------- null}
r -t 0.249824 -s 1 -d 4 -p tcp -e 1040 -c 2 -i 13 -a 2 -x {1.0 3.0 4 ------- null}
+ -t 0.249824 -s 4 -d 3 -p tcp -e 1040 -c 2 -i 13 -a 2 -x {1.0 3.0 4 ------- null}
r -t 0.251136 -s 4 -d 0 -p ack -e 40 -c 1 -i 10 -a 1 -x {2.0 0.0 1 ------- null}
+ -t 0.251136 -s 0 -d 4 -p tcp -e 1040 -c 1 -i 16 -a 1 -x {0.0 2.0 3 ------- null}
- -t 0.251136 -s 0 -d 4 -p tcp -e 1040 -c 1 -i 16 -a 1 -x {0.0 2.0 3 ------- null}
h -t 0.251136 -s 0 -d 4 -p tcp -e 1040 -c 1 -i 16 -a 1 -x {0.0 2.0 -1 ------- null}
+ -t 0.251136 -s 0 -d 4 -p tcp -e 1040 -c 1 -i 17 -a 1 -x {0.0 2.0 4 ------- null}
r -t 0.25232 -s 1 -d 4 -p tcp -e 1040 -c 2 -i 14 -a 2 -x {1.0 3.0 5 ------- null}
+ -t 0.25232 -s 4 -d 3 -p tcp -e 1040 -c 2 -i 14 -a 2 -x {1.0 3.0 5 ------- null}
- -t 0.25232 -s 4 -d 3 -p tcp -e 1040 -c 2 -i 13 -a 2 -x {1.0 3.0 4 ------- null}
h -t 0.25232 -s 4 -d 3 -p tcp -e 1040 -c 2 -i 13 -a 2 -x {1.0 3.0 -1 ------- null}
- -t 0.2528 -s 0 -d 4 -p tcp -e 1040 -c 1 -i 17 -a 1 -x {0.0 2.0 4 ------- null}
h -t 0.2528 -s 0 -d 4 -p tcp -e 1040 -c 1 -i 17 -a 1 -x {0.0 2.0 -1 ------- null}
r -t 0.253984 -s 1 -d 4 -p tcp -e 1040 -c 2 -i 15 -a 2 -x {1.0 3.0 6 ------- null}
+ -t 0.253984 -s 4 -d 3 -p tcp -e 1040 -c 2 -i 15 -a 2 -x {1.0 3.0 6 ------- null}
- -t 0.25648 -s 4 -d 3 -p tcp -e 1040 -c 2 -i 14 -a 2 -x {1.0 3.0 5 ------- null}
h -t 0.25648 -s 4 -d 3 -p tcp -e 1040 -c 2 -i 14 -a 2 -x {1.0 3.0 -1 ------- null}
r -t 0.259456 -s 4 -d 0 -p ack -e 40 -c 1 -i 11 -a 1 -x {2.0 0.0 2 ------- null}
+ -t 0.259456 -s 0 -d 4 -p tcp -e 1040 -c 1 -i 18 -a 1 -x {0.0 2.0 5 ------- null}
- -t 0.259456 -s 0 -d 4 -p tcp -e 1040 -c 1 -i 18 -a 1 -x {0.0 2.0 5 ------- null}
h -t 0.259456 -s 0 -d 4 -p tcp -e 1040 -c 1 -i 18 -a 1 -x {0.0 2.0 -1 ------- null}
+ -t 0.259456 -s 0 -d 4 -p tcp -e 1040 -c 1 -i 19 -a 1 -x {0.0 2.0 6 ------- null}
- -t 0.26064 -s 4 -d 3 -p tcp -e 1040 -c 2 -i 15 -a 2 -x {1.0 3.0 6 ------- null}
h -t 0.26064 -s 4 -d 3 -p tcp -e 1040 -c 2 -i 15 -a 2 -x {1.0 3.0 -1 ------- null}
- -t 0.26112 -s 0 -d 4 -p tcp -e 1040 -c 1 -i 19 -a 1 -x {0.0 2.0 6 ------- null}
h -t 0.26112 -s 0 -d 4 -p tcp -e 1040 -c 1 -i 19 -a 1 -x {0.0 2.0 -1 ------- null}
r -t 0.26232 -s 4 -d 3 -p tcp -e 1040 -c 2 -i 12 -a 2 -x {1.0 3.0 3 ------- null}
+ -t 0.26232 -s 3 -d 4 -p ack -e 40 -c 2 -i 20 -a 2 -x {3.0 1.0 3 ------- null}
- -t 0.26232 -s 3 -d 4 -p ack -e 40 -c 2 -i 20 -a 2 -x {3.0 1.0 3 ------- null}
h -t 0.26232 -s 3 -d 4 -p ack -e 40 -c 2 -i 20 -a 2 -x {3.0 1.0 -1 ------- null}
r -t 0.26648 -s 4 -d 3 -p tcp -e 1040 -c 2 -i 13 -a 2 -x {1.0 3.0 4 ------- null}
+ -t 0.26648 -s 3 -d 4 -p ack -e 40 -c 2 -i 21 -a 2 -x {3.0 1.0 4 ------- null}
- -t 0.26648 -s 3 -d 4 -p ack -e 40 -c 2 -i 21 -a 2 -x {3.0 1.0 4 ------- null}
h -t 0.26648 -s 3 -d 4 -p ack -e 40 -c 2 -i 21 -a 2 -x {3.0 1.0 -1 ------- null}
r -t 0.2678 -s 0 -d 4 -p tcp -e 1040 -c 1 -i 16 -a 1 -x {0.0 2.0 3 ------- null}
+ -t 0.2678 -s 4 -d 2 -p tcp -e 1040 -c 1 -i 16 -a 1 -x {0.0 2.0 3 ------- null}
- -t 0.2678 -s 4 -d 2 -p tcp -e 1040 -c 1 -i 16 -a 1 -x {0.0 2.0 3 ------- null}
h -t 0.2678 -s 4 -d 2 -p tcp -e 1040 -c 1 -i 16 -a 1 -x {0.0 2.0 -1 ------- null}
r -t 0.269464 -s 0 -d 4 -p tcp -e 1040 -c 1 -i 17 -a 1 -x {0.0 2.0 4 ------- null}
+ -t 0.269464 -s 4 -d 2 -p tcp -e 1040 -c 1 -i 17 -a 1 -x {0.0 2.0 4 ------- null}
r -t 0.27064 -s 4 -d 3 -p tcp -e 1040 -c 2 -i 14 -a 2 -x {1.0 3.0 5 ------- null}
+ -t 0.27064 -s 3 -d 4 -p ack -e 40 -c 2 -i 22 -a 2 -x {3.0 1.0 5 ------- null}
- -t 0.27064 -s 3 -d 4 -p ack -e 40 -c 2 -i 22 -a 2 -x {3.0 1.0 5 ------- null}
h -t 0.27064 -s 3 -d 4 -p ack -e 40 -c 2 -i 22 -a 2 -x {3.0 1.0 -1 ------- null}
r -t 0.27248 -s 3 -d 4 -p ack -e 40 -c 2 -i 20 -a 2 -x {3.0 1.0 3 ------- null}
+ -t 0.27248 -s 4 -d 1 -p ack -e 40 -c 2 -i 20 -a 2 -x {3.0 1.0 3 ------- null}
- -t 0.27248 -s 4 -d 1 -p ack -e 40 -c 2 -i 20 -a 2 -x {3.0 1.0 3 ------- null}
h -t 0.27248 -s 4 -d 1 -p ack -e 40 -c 2 -i 20 -a 2 -x {3.0 1.0 -1 ------- null}
r -t 0.2748 -s 4 -d 3 -p tcp -e 1040 -c 2 -i 15 -a 2 -x {1.0 3.0 6 ------- null}
+ -t 0.2748 -s 3 -d 4 -p ack -e 40 -c 2 -i 23 -a 2 -x {3.0 1.0 6 ------- null}
- -t 0.2748 -s 3 -d 4 -p ack -e 40 -c 2 -i 23 -a 2 -x {3.0 1.0 6 ------- null}
h -t 0.2748 -s 3 -d 4 -p ack -e 40 -c 2 -i 23 -a 2 -x {3.0 1.0 -1 ------- null}
r -t 0.27612 -s 0 -d 4 -p tcp -e 1040 -c 1 -i 18 -a 1 -x {0.0 2.0 5 ------- null}
+ -t 0.27612 -s 4 -d 2 -p tcp -e 1040 -c 1 -i 18 -a 1 -x {0.0 2.0 5 ------- null}
- -t 0.27612 -s 4 -d 2 -p tcp -e 1040 -c 1 -i 17 -a 1 -x {0.0 2.0 4 ------- null}
h -t 0.27612 -s 4 -d 2 -p tcp -e 1040 -c 1 -i 17 -a 1 -x {0.0 2.0 -1 ------- null}
r -t 0.27664 -s 3 -d 4 -p ack -e 40 -c 2 -i 21 -a 2 -x {3.0 1.0 4 ------- null}
+ -t 0.27664 -s 4 -d 1 -p ack -e 40 -c 2 -i 21 -a 2 -x {3.0 1.0 4 ------- null}
- -t 0.27664 -s 4 -d 1 -p ack -e 40 -c 2 -i 21 -a 2 -x {3.0 1.0 4 ------- null}
h -t 0.27664 -s 4 -d 1 -p ack -e 40 -c 2 -i 21 -a 2 -x {3.0 1.0 -1 ------- null}
r -t 0.277784 -s 0 -d 4 -p tcp -e 1040 -c 1 -i 19 -a 1 -x {0.0 2.0 6 ------- null}
+ -t 0.277784 -s 4 -d 2 -p tcp -e 1040 -c 1 -i 19 -a 1 -x {0.0 2.0 6 ------- null}
r -t 0.2808 -s 3 -d 4 -p ack -e 40 -c 2 -i 22 -a 2 -x {3.0 1.0 5 ------- null}
+ -t 0.2808 -s 4 -d 1 -p ack -e 40 -c 2 -i 22 -a 2 -x {3.0 1.0 5 ------- null}
- -t 0.2808 -s 4 -d 1 -p ack -e 40 -c 2 -i 22 -a 2 -x {3.0 1.0 5 ------- null}
h -t 0.2808 -s 4 -d 1 -p ack -e 40 -c 2 -i 22 -a 2 -x {3.0 1.0 -1 ------- null}
- -t 0.28444 -s 4 -d 2 -p tcp -e 1040 -c 1 -i 18 -a 1 -x {0.0 2.0 5 ------- null}
h -t 0.28444 -s 4 -d 2 -p tcp -e 1040 -c 1 -i 18 -a 1 -x {0.0 2.0 -1 ------- null}
r -t 0.28496 -s 3 -d 4 -p ack -e 40 -c 2 -i 23 -a 2 -x {3.0 1.0 6 ------- null}
+ -t 0.28496 -s 4 -d 1 -p ack -e 40 -c 2 -i 23 -a 2 -x {3.0 1.0 6 ------- null}
- -t 0.28496 -s 4 -d 1 -p ack -e 40 -c 2 -i 23 -a 2 -x {3.0 1.0 6 ------- null}
h -t 0.28496 -s 4 -d 1 -p ack -e 40 -c 2 -i 23 -a 2 -x {3.0 1.0 -1 ------- null}
r -t 0.292544 -s 4 -d 1 -p ack -e 40 -c 2 -i 20 -a 2 -x {3.0 1.0 3 ------- null}
+ -t 0.292544 -s 1 -d 4 -p tcp -e 1040 -c 2 -i 24 -a 2 -x {1.0 3.0 7 ------- null}
- -t 0.292544 -s 1 -d 4 -p tcp -e 1040 -c 2 -i 24 -a 2 -x {1.0 3.0 7 ------- null}
h -t 0.292544 -s 1 -d 4 -p tcp -e 1040 -c 2 -i 24 -a 2 -x {1.0 3.0 -1 ------- null}
+ -t 0.292544 -s 1 -d 4 -p tcp -e 1040 -c 2 -i 25 -a 2 -x {1.0 3.0 8 ------- null}
- -t 0.29276 -s 4 -d 2 -p tcp -e 1040 -c 1 -i 19 -a 1 -x {0.0 2.0 6 ------- null}
h -t 0.29276 -s 4 -d 2 -p tcp -e 1040 -c 1 -i 19 -a 1 -x {0.0 2.0 -1 ------- null}
- -t 0.294208 -s 1 -d 4 -p tcp -e 1040 -c 2 -i 25 -a 2 -x {1.0 3.0 8 ------- null}
h -t 0.294208 -s 1 -d 4 -p tcp -e 1040 -c 2 -i 25 -a 2 -x {1.0 3.0 -1 ------- null}
r -t 0.29612 -s 4 -d 2 -p tcp -e 1040 -c 1 -i 16 -a 1 -x {0.0 2.0 3 ------- null}
+ -t 0.29612 -s 2 -d 4 -p ack -e 40 -c 1 -i 26 -a 1 -x {2.0 0.0 3 ------- null}
- -t 0.29612 -s 2 -d 4 -p ack -e 40 -c 1 -i 26 -a 1 -x {2.0 0.0 3 ------- null}
h -t 0.29612 -s 2 -d 4 -p ack -e 40 -c 1 -i 26 -a 1 -x {2.0 0.0 -1 ------- null}
r -t 0.296704 -s 4 -d 1 -p ack -e 40 -c 2 -i 21 -a 2 -x {3.0 1.0 4 ------- null}
+ -t 0.296704 -s 1 -d 4 -p tcp -e 1040 -c 2 -i 27 -a 2 -x {1.0 3.0 9 ------- null}
- -t 0.296704 -s 1 -d 4 -p tcp -e 1040 -c 2 -i 27 -a 2 -x {1.0 3.0 9 ------- null}
h -t 0.296704 -s 1 -d 4 -p tcp -e 1040 -c 2 -i 27 -a 2 -x {1.0 3.0 -1 ------- null}
+ -t 0.296704 -s 1 -d 4 -p tcp -e 1040 -c 2 -i 28 -a 2 -x {1.0 3.0 10 ------- null}
- -t 0.298368 -s 1 -d 4 -p tcp -e 1040 -c 2 -i 28 -a 2 -x {1.0 3.0 10 ------- null}
h -t 0.298368 -s 1 -d 4 -p tcp -e 1040 -c 2 -i 28 -a 2 -x {1.0 3.0 -1 ------- null}
r -t 0.300864 -s 4 -d 1 -p ack -e 40 -c 2 -i 22 -a 2 -x {3.0 1.0 5 ------- null}
+ -t 0.300864 -s 1 -d 4 -p tcp -e 1040 -c 2 -i 29 -a 2 -x {1.0 3.0 11 ------- null}
- -t 0.300864 -s 1 -d 4 -p tcp -e 1040 -c 2 -i 29 -a 2 -x {1.0 3.0 11 ------- null}
h -t 0.300864 -s 1 -d 4 -p tcp -e 1040 -c 2 -i 29 -a 2 -x {1.0 3.0 -1 ------- null}
+ -t 0.300864 -s 1 -d 4 -p tcp -e 1040 -c 2 -i 30 -a 2 -x {1.0 3.0 12 ------- null}
- -t 0.302528 -s 1 -d 4 -p tcp -e 1040 -c 2 -i 30 -a 2 -x {1.0 3.0 12 ------- null}
h -t 0.302528 -s 1 -d 4 -p tcp -e 1040 -c 2 -i 30 -a 2 -x {1.0 3.0 -1 ------- null}
r -t 0.30444 -s 4 -d 2 -p tcp -e 1040 -c 1 -i 17 -a 1 -x {0.0 2.0 4 ------- null}
+ -t 0.30444 -s 2 -d 4 -p ack -e 40 -c 1 -i 31 -a 1 -x {2.0 0.0 4 ------- null}
- -t 0.30444 -s 2 -d 4 -p ack -e 40 -c 1 -i 31 -a 1 -x {2.0 0.0 4 ------- null}
h -t 0.30444 -s 2 -d 4 -p ack -e 40 -c 1 -i 31 -a 1 -x {2.0 0.0 -1 ------- null}
r -t 0.305024 -s 4 -d 1 -p ack -e 40 -c 2 -i 23 -a 2 -x {3.0 1.0 6 ------- null}
+ -t 0.305024 -s 1 -d 4 -p tcp -e 1040 -c 2 -i 32 -a 2 -x {1.0 3.0 13 ------- null}
- -t 0.305024 -s 1 -d 4 -p tcp -e 1040 -c 2 -i 32 -a 2 -x {1.0 3.0 13 ------- null}
h -t 0.305024 -s 1 -d 4 -p tcp -e 1040 -c 2 -i 32 -a 2 -x {1.0 3.0 -1 ------- null}
+ -t 0.305024 -s 1 -d 4 -p tcp -e 1040 -c 2 -i 33 -a 2 -x {1.0 3.0 14 ------- null}
- -t 0.306688 -s 1 -d 4 -p tcp -e 1040 -c 2 -i 33 -a 2 -x {1.0 3.0 14 ------- null}
h -t 0.306688 -s 1 -d 4 -p tcp -e 1040 -c 2 -i 33 -a 2 -x {1.0 3.0 -1 ------- null}
r -t 0.31276 -s 4 -d 2 -p tcp -e 1040 -c 1 -i 18 -a 1 -x {0.0 2.0 5 ------- null}
+ -t 0.31276 -s 2 -d 4 -p ack -e 40 -c 1 -i 34 -a 1 -x {2.0 0.0 5 ------- null}
- -t 0.31276 -s 2 -d 4 -p ack -e 40 -c 1 -i 34 -a 1 -x {2.0 0.0 5 ------- null}
h -t 0.31276 -s 2 -d 4 -p ack -e 40 -c 1 -i 34 -a 1 -x {2.0 0.0 -1 ------- null}
r -t 0.314208 -s 1 -d 4 -p tcp -e 1040 -c 2 -i 24 -a 2 -x {1.0 3.0 7 ------- null}
+ -t 0.314208 -s 4 -d 3 -p tcp -e 1040 -c 2 -i 24 -a 2 -x {1.0 3.0 7 ------- null}
- -t 0.314208 -s 4 -d 3 -p tcp -e 1040 -c 2 -i 24 -a 2 -x {1.0 3.0 7 ------- null}
h -t 0.314208 -s 4 -d 3 -p tcp -e 1040 -c 2 -i 24 -a 2 -x {1.0 3.0 -1 ------- null}
r -t 0.315872 -s 1 -d 4 -p tcp -e 1040 -c 2 -i 25 -a 2 -x {1.0 3.0 8 ------- null}
+ -t 0.315872 -s 4 -d 3 -p tcp -e 1040 -c 2 -i 25 -a 2 -x {1.0 3.0 8 ------- null}
r -t 0.31644 -s 2 -d 4 -p ack -e 40 -c 1 -i 26 -a 1 -x {2.0 0.0 3 ------- null}
+ -t 0.31644 -s 4 -d 0 -p ack -e 40 -c 1 -i 26 -a 1 -x {2.0 0.0 3 ------- null}
- -t 0.31644 -s 4 -d 0 -p ack -e 40 -c 1 -i 26 -a 1 -x {2.0 0.0 3 ------- null}
h -t 0.31644 -s 4 -d 0 -p ack -e 40 -c 1 -i 26 -a 1 -x {2.0 0.0 -1 ------- null}
r -t 0.318368 -s 1 -d 4 -p tcp -e 1040 -c 2 -i 27 -a 2 -x {1.0 3.0 9 ------- null}
+ -t 0.318368 -s 4 -d 3 -p tcp -e 1040 -c 2 -i 27 -a 2 -x {1.0 3.0 9 ------- null}
- -t 0.318368 -s 4 -d 3 -p tcp -e 1040 -c 2 -i 25 -a 2 -x {1.0 3.0 8 ------- null}
h -t 0.318368 -s 4 -d 3 -p tcp -e 1040 -c 2 -i 25 -a 2 -x {1.0 3.0 -1 ------- null}
r -t 0.320032 -s 1 -d 4 -p tcp -e 1040 -c 2 -i 28 -a 2 -x {1.0 3.0 10 ------- null}
+ -t 0.320032 -s 4 -d 3 -p tcp -e 1040 -c 2 -i 28 -a 2 -x {1.0 3.0 10 ------- null}
r -t 0.32108 -s 4 -d 2 -p tcp -e 1040 -c 1 -i 19 -a 1 -x {0.0 2.0 6 ------- null}
+ -t 0.32108 -s 2 -d 4 -p ack -e 40 -c 1 -i 35 -a 1 -x {2.0 0.0 6 ------- null}
- -t 0.32108 -s 2 -d 4 -p ack -e 40 -c 1 -i 35 -a 1 -x {2.0 0.0 6 ------- null}
h -t 0.32108 -s 2 -d 4 -p ack -e 40 -c 1 -i 35 -a 1 -x {2.0 0.0 -1 ------- null}
r -t 0.322528 -s 1 -d 4 -p tcp -e 1040 -c 2 -i 29 -a 2 -x {1.0 3.0 11 ------- null}
+ -t 0.322528 -s 4 -d 3 -p tcp -e 1040 -c 2 -i 29 -a 2 -x {1.0 3.0 11 ------- null}
- -t 0.322528 -s 4 -d 3 -p tcp -e 1040 -c 2 -i 27 -a 2 -x {1.0 3.0 9 ------- null}
h -t 0.322528 -s 4 -d 3 -p tcp -e 1040 -c 2 -i 27 -a 2 -x {1.0 3.0 -1 ------- null}
r -t 0.324192 -s 1 -d 4 -p tcp -e 1040 -c 2 -i 30 -a 2 -x {1.0 3.0 12 ------- null}
+ -t 0.324192 -s 4 -d 3 -p tcp -e 1040 -c 2 -i 30 -a 2 -x {1.0 3.0 12 ------- null}
r -t 0.32476 -s 2 -d 4 -p ack -e 40 -c 1 -i 31 -a 1 -x {2.0 0.0 4 ------- null}
+ -t 0.32476 -s 4 -d 0 -p ack -e 40 -c 1 -i 31 -a 1 -x {2.0 0.0 4 ------- null}
- -t 0.32476 -s 4 -d 0 -p ack -e 40 -c 1 -i 31 -a 1 -x {2.0 0.0 4 ------- null}
h -t 0.32476 -s 4 -d 0 -p ack -e 40 -c 1 -i 31 -a 1 -x {2.0 0.0 -1 ------- null}
r -t 0.326688 -s 1 -d 4 -p tcp -e 1040 -c 2 -i 32 -a 2 -x {1.0 3.0 13 ------- null}
+ -t 0.326688 -s 4 -d 3 -p tcp -e 1040 -c 2 -i 32 -a 2 -x {1.0 3.0 13 ------- null}
- -t 0.326688 -s 4 -d 3 -p tcp -e 1040 -c 2 -i 28 -a 2 -x {1.0 3.0 10 ------- null}
h -t 0.326688 -s 4 -d 3 -p tcp -e 1040 -c 2 -i 28 -a 2 -x {1.0 3.0 -1 ------- null}
r -t 0.328352 -s 1 -d 4 -p tcp -e 1040 -c 2 -i 33 -a 2 -x {1.0 3.0 14 ------- null}
+ -t 0.328352 -s 4 -d 3 -p tcp -e 1040 -c 2 -i 33 -a 2 -x {1.0 3.0 14 ------- null}
r -t 0.328368 -s 4 -d 3 -p tcp -e 1040 -c 2 -i 24 -a 2 -x {1.0 3.0 7 ------- null}
+ -t 0.328368 -s 3 -d 4 -p ack -e 40 -c 2 -i 36 -a 2 -x {3.0 1.0 7 ------- null}
- -t 0.328368 -s 3 -d 4 -p ack -e 40 -c 2 -i 36 -a 2 -x {3.0 1.0 7 ------- null}
h -t 0.328368 -s 3 -d 4 -p ack -e 40 -c 2 -i 36 -a 2 -x {3.0 1.0 -1 ------- null}
- -t 0.330848 -s 4 -d 3 -p tcp -e 1040 -c 2 -i 29 -a 2 -x {1.0 3.0 11 ------- null}
h -t 0.330848 -s 4 -d 3 -p tcp -e 1040 -c 2 -i 29 -a 2 -x {1.0 3.0 -1 ------- null}
r -t 0.331504 -s 4 -d 0 -p ack -e 40 -c 1 -i 26 -a 1 -x {2.0 0.0 3 ------- null}
+ -t 0.331504 -s 0 -d 4 -p tcp -e 1040 -c 1 -i 37 -a 1 -x {0.0 2.0 7 ------- null}
- -t 0.331504 -s 0 -d 4 -p tcp -e 1040 -c 1 -i 37 -a 1 -x {0.0 2.0 7 ------- null}
h -t 0.331504 -s 0 -d 4 -p tcp -e 1040 -c 1 -i 37 -a 1 -x {0.0 2.0 -1 ------- null}
+ -t 0.331504 -s 0 -d 4 -p tcp -e 1040 -c 1 -i 38 -a 1 -x {0.0 2.0 8 ------- null}
r -t 0.332528 -s 4 -d 3 -p tcp -e 1040 -c 2 -i 25 -a 2 -x {1.0 3.0 8 ------- null}
+ -t 0.332528 -s 3 -d 4 -p ack -e 40 -c 2 -i 39 -a 2 -x {3.0 1.0 8 ------- null}
- -t 0.332528 -s 3 -d 4 -p ack -e 40 -c 2 -i 39 -a 2 -x {3.0 1.0 8 ------- null}
h -t 0.332528 -s 3 -d 4 -p ack -e 40 -c 2 -i 39 -a 2 -x {3.0 1.0 -1 ------- null}
r -t 0.33308 -s 2 -d 4 -p ack -e 40 -c 1 -i 34 -a 1 -x {2.0 0.0 5 ------- null}
+ -t 0.33308 -s 4 -d 0 -p ack -e 40 -c 1 -i 34 -a 1 -x {2.0 0.0 5 ------- null}
- -t 0.33308 -s 4 -d 0 -p ack -e 40 -c 1 -i 34 -a 1 -x {2.0 0.0 5 ------- null}
h -t 0.33308 -s 4 -d 0 -p ack -e 40 -c 1 -i 34 -a 1 -x {2.0 0.0 -1 ------- null}
- -t 0.333168 -s 0 -d 4 -p tcp -e 1040 -c 1 -i 38 -a 1 -x {0.0 2.0 8 ------- null}
h -t 0.333168 -s 0 -d 4 -p tcp -e 1040 -c 1 -i 38 -a 1 -x {0.0 2.0 -1 ------- null}
- -t 0.335008 -s 4 -d 3 -p tcp -e 1040 -c 2 -i 30 -a 2 -x {1.0 3.0 12 ------- null}
h -t 0.335008 -s 4 -d 3 -p tcp -e 1040 -c 2 -i 30 -a 2 -x {1.0 3.0 -1 ------- null}
r -t 0.336688 -s 4 -d 3 -p tcp -e 1040 -c 2 -i 27 -a 2 -x {1.0 3.0 9 ------- null}
+ -t 0.336688 -s 3 -d 4 -p ack -e 40 -c 2 -i 40 -a 2 -x {3.0 1.0 9 ------- null}
- -t 0.336688 -s 3 -d 4 -p ack -e 40 -c 2 -i 40 -a 2 -x {3.0 1.0 9 ------- null}
h -t 0.336688 -s 3 -d 4 -p ack -e 40 -c 2 -i 40 -a 2 -x {3.0 1.0 -1 ------- null}
r -t 0.338528 -s 3 -d 4 -p ack -e 40 -c 2 -i 36 -a 2 -x {3.0 1.0 7 ------- null}
+ -t 0.338528 -s 4 -d 1 -p ack -e 40 -c 2 -i 36 -a 2 -x {3.0 1.0 7 ------- null}
- -t 0.338528 -s 4 -d 1 -p ack -e 40 -c 2 -i 36 -a 2 -x {3.0 1.0 7 ------- null}
h -t 0.338528 -s 4 -d 1 -p ack -e 40 -c 2 -i 36 -a 2 -x {3.0 1.0 -1 ------- null}
- -t 0.339168 -s 4 -d 3 -p tcp -e 1040 -c 2 -i 32 -a 2 -x {1.0 3.0 13 ------- null}
h -t 0.339168 -s 4 -d 3 -p tcp -e 1040 -c 2 -i 32 -a 2 -x {1.0 3.0 -1 ------- null}
r -t 0.339824 -s 4 -d 0 -p ack -e 40 -c 1 -i 31 -a 1 -x {2.0 0.0 4 ------- null}
+ -t 0.339824 -s 0 -d 4 -p tcp -e 1040 -c 1 -i 41 -a 1 -x {0.0 2.0 9 ------- null}
- -t 0.339824 -s 0 -d 4 -p tcp -e 1040 -c 1 -i 41 -a 1 -x {0.0 2.0 9 ------- null}
h -t 0.339824 -s 0 -d 4 -p tcp -e 1040 -c 1 -i 41 -a 1 -x {0.0 2.0 -1 ------- null}
+ -t 0.339824 -s 0 -d 4 -p tcp -e 1040 -c 1 -i 42 -a 1 -x {0.0 2.0 10 ------- null}
r -t 0.340848 -s 4 -d 3 -p tcp -e 1040 -c 2 -i 28 -a 2 -x {1.0 3.0 10 ------- null}
+ -t 0.340848 -s 3 -d 4 -p ack -e 40 -c 2 -i 43 -a 2 -x {3.0 1.0 10 ------- null}
- -t 0.340848 -s 3 -d 4 -p ack -e 40 -c 2 -i 43 -a 2 -x {3.0 1.0 10 ------- null}
h -t 0.340848 -s 3 -d 4 -p ack -e 40 -c 2 -i 43 -a 2 -x {3.0 1.0 -1 ------- null}
r -t 0.3414 -s 2 -d 4 -p ack -e 40 -c 1 -i 35 -a 1 -x {2.0 0.0 6 ------- null}
+ -t 0.3414 -s 4 -d 0 -p ack -e 40 -c 1 -i 35 -a 1 -x {2.0 0.0 6 ------- null}
- -t 0.3414 -s 4 -d 0 -p ack -e 40 -c 1 -i 35 -a 1 -x {2.0 0.0 6 ------- null}
h -t 0.3414 -s 4 -d 0 -p ack -e 40 -c 1 -i 35 -a 1 -x {2.0 0.0 -1 ------- null}
- -t 0.341488 -s 0 -d 4 -p tcp -e 1040 -c 1 -i 42 -a 1 -x {0.0 2.0 10 ------- null}
h -t 0.341488 -s 0 -d 4 -p tcp -e 1040 -c 1 -i 42 -a 1 -x {0.0 2.0 -1 ------- null}
r -t 0.342688 -s 3 -d 4 -p ack -e 40 -c 2 -i 39 -a 2 -x {3.0 1.0 8 ------- null}
+ -t 0.342688 -s 4 -d 1 -p ack -e 40 -c 2 -i 39 -a 2 -x {3.0 1.0 8 ------- null}
- -t 0.342688 -s 4 -d 1 -p ack -e 40 -c 2 -i 39 -a 2 -x {3.0 1.0 8 ------- null}
h -t 0.342688 -s 4 -d 1 -p ack -e 40 -c 2 -i 39 -a 2 -x {3.0 1.0 -1 ------- null}
- -t 0.343328 -s 4 -d 3 -p tcp -e 1040 -c 2 -i 33 -a 2 -x {1.0 3.0 14 ------- null}
h -t 0.343328 -s 4 -d 3 -p tcp -e 1040 -c 2 -i 33 -a 2 -x {1.0 3.0 -1 ------- null}
r -t 0.345008 -s 4 -d 3 -p tcp -e 1040 -c 2 -i 29 -a 2 -x {1.0 3.0 11 ------- null}
+ -t 0.345008 -s 3 -d 4 -p ack -e 40 -c 2 -i 44 -a 2 -x {3.0 1.0 11 ------- null}
- -t 0.345008 -s 3 -d 4 -p ack -e 40 -c 2 -i 44 -a 2 -x {3.0 1.0 11 ------- null}
h -t 0.345008 -s 3 -d 4 -p ack -e 40 -c 2 -i 44 -a 2 -x {3.0 1.0 -1 ------- null}
r -t 0.346848 -s 3 -d 4 -p ack -e 40 -c 2 -i 40 -a 2 -x {3.0 1.0 9 ------- null}
+ -t 0.346848 -s 4 -d 1 -p ack -e 40 -c 2 -i 40 -a 2 -x {3.0 1.0 9 ------- null}
- -t 0.346848 -s 4 -d 1 -p ack -e 40 -c 2 -i 40 -a 2 -x {3.0 1.0 9 ------- null}
h -t 0.346848 -s 4 -d 1 -p ack -e 40 -c 2 -i 40 -a 2 -x {3.0 1.0 -1 ------- null}
r -t 0.348144 -s 4 -d 0 -p ack -e 40 -c 1 -i 34 -a 1 -x {2.0 0.0 5 ------- null}
+ -t 0.348144 -s 0 -d 4 -p tcp -e 1040 -c 1 -i 45 -a 1 -x {0.0 2.0 11 ------- null}
- -t 0.348144 -s 0 -d 4 -p tcp -e 1040 -c 1 -i 45 -a 1 -x {0.0 2.0 11 ------- null}
h -t 0.348144 -s 0 -d 4 -p tcp -e 1040 -c 1 -i 45 -a 1 -x {0.0 2.0 -1 ------- null}
+ -t 0.348144 -s 0 -d 4 -p tcp -e 1040 -c 1 -i 46 -a 1 -x {0.0 2.0 12 ------- null}
r -t 0.348168 -s 0 -d 4 -p tcp -e 1040 -c 1 -i 37 -a 1 -x {0.0 2.0 7 ------- null}
+ -t 0.348168 -s 4 -d 2 -p tcp -e 1040 -c 1 -i 37 -a 1 -x {0.0 2.0 7 ------- null}
- -t 0.348168 -s 4 -d 2 -p tcp -e 1040 -c 1 -i 37 -a 1 -x {0.0 2.0 7 ------- null}
h -t 0.348168 -s 4 -d 2 -p tcp -e 1040 -c 1 -i 37 -a 1 -x {0.0 2.0 -1 ------- null}
r -t 0.349168 -s 4 -d 3 -p tcp -e 1040 -c 2 -i 30 -a 2 -x {1.0 3.0 12 ------- null}
+ -t 0.349168 -s 3 -d 4 -p ack -e 40 -c 2 -i 47 -a 2 -x {3.0 1.0 12 ------- null}
- -t 0.349168 -s 3 -d 4 -p ack -e 40 -c 2 -i 47 -a 2 -x {3.0 1.0 12 ------- null}
h -t 0.349168 -s 3 -d 4 -p ack -e 40 -c 2 -i 47 -a 2 -x {3.0 1.0 -1 ------- null}
- -t 0.349808 -s 0 -d 4 -p tcp -e 1040 -c 1 -i 46 -a 1 -x {0.0 2.0 12 ------- null}
h -t 0.349808 -s 0 -d 4 -p tcp -e 1040 -c 1 -i 46 -a 1 -x {0.0 2.0 -1 ------- null}
r -t 0.349832 -s 0 -d 4 -p tcp -e 1040 -c 1 -i 38 -a 1 -x {0.0 2.0 8 ------- null}
+ -t 0.349832 -s 4 -d 2 -p tcp -e 1040 -c 1 -i 38 -a 1 -x {0.0 2.0 8 ------- null}
r -t 0.351008 -s 3 -d 4 -p ack -e 40 -c 2 -i 43 -a 2 -x {3.0 1.0 10 ------- null}
+ -t 0.351008 -s 4 -d 1 -p ack -e 40 -c 2 -i 43 -a 2 -x {3.0 1.0 10 ------- null}
- -t 0.351008 -s 4 -d 1 -p ack -e 40 -c 2 -i 43 -a 2 -x {3.0 1.0 10 ------- null}
h -t 0.351008 -s 4 -d 1 -p ack -e 40 -c 2 -i 43 -a 2 -x {3.0 1.0 -1 ------- null}
r -t 0.353328 -s 4 -d 3 -p tcp -e 1040 -c 2 -i 32 -a 2 -x {1.0 3.0 13 ------- null}
+ -t 0.353328 -s 3 -d 4 -p ack -e 40 -c 2 -i 48 -a 2 -x {3.0 1.0 13 ------- null}
- -t 0.353328 -s 3 -d 4 -p ack -e 40 -c 2 -i 48 -a 2 -x {3.0 1.0 13 ------- null}
h -t 0.353328 -s 3 -d 4 -p ack -e 40 -c 2 -i 48 -a 2 -x {3.0 1.0 -1 ------- null}
r -t 0.355168 -s 3 -d 4 -p ack -e 40 -c 2 -i 44 -a 2 -x {3.0 1.0 11 ------- null}
+ -t 0.355168 -s 4 -d 1 -p ack -e 40 -c 2 -i 44 -a 2 -x {3.0 1.0 11 ------- null}
- -t 0.355168 -s 4 -d 1 -p ack -e 40 -c 2 -i 44 -a 2 -x {3.0 1.0 11 ------- null}
h -t 0.355168 -s 4 -d 1 -p ack -e 40 -c 2 -i 44 -a 2 -x {3.0 1.0 -1 ------- null}
r -t 0.356464 -s 4 -d 0 -p ack -e 40 -c 1 -i 35 -a 1 -x {2.0 0.0 6 ------- null}
+ -t 0.356464 -s 0 -d 4 -p tcp -e 1040 -c 1 -i 49 -a 1 -x {0.0 2.0 13 ------- null}
- -t 0.356464 -s 0 -d 4 -p tcp -e 1040 -c 1 -i 49 -a 1 -x {0.0 2.0 13 ------- null}
h -t 0.356464 -s 0 -d 4 -p tcp -e 1040 -c 1 -i 49 -a 1 -x {0.0 2.0 -1 ------- null}
+ -t 0.356464 -s 0 -d 4 -p tcp -e 1040 -c 1 -i 50 -a 1 -x {0.0 2.0 14 ------- null}
r -t 0.356488 -s 0 -d 4 -p tcp -e 1040 -c 1 -i 41 -a 1 -x {0.0 2.0 9 ------- null}
+ -t 0.356488 -s 4 -d 2 -p tcp -e 1040 -c 1 -i 41 -a 1 -x {0.0 2.0 9 ------- null}